
     Program PWSCF v.6.0 (svn rev. 13079) starts on 10Jan2019 at 13:20:10 

     This program is part of the open-source Quantum ESPRESSO suite
     for quantum simulation of materials; please cite
         "P. Giannozzi et al., J. Phys.:Condens. Matter 21 395502 (2009);
          URL http://www.quantum-espresso.org", 
     in publications or presentations arising from this work. More details at
     http://www.quantum-espresso.org/quote

     Parallel version (MPI), running on    40 processors
     R & G space division:  proc/nbgrp/npool/nimage =      40
     Waiting for input...
     Reading input from standard input

     Current dimensions of program PWSCF are:
     Max number of different atomic species (ntypx) = 10
     Max number of k-points (npk) =  40000
     Max angular momentum in pseudopotentials (lmaxx) =  3
     Message from routine iosys:
     london is obsolete, use "vdw_corr='grimme-d2'" instead
               file Bi.rel-pbe-dn-kjpaw_psl.1.0.0.UPF: wavefunction(s)  6P 6P 5D 5D renormalized
               file Se.rel-pbe-dn-kjpaw_psl.1.0.0.UPF: wavefunction(s)  4S 4P 4P 3D 3D renormalized

     -------------------------------------
     Parameters for Dispersion Correction:
     -------------------------------------
       atom      VdW radius       C_6     

        Bi         3.586       2204.274
        Se         3.347        438.498

     Subspace diagonalization in iterative solution of the eigenvalue problem:
     one sub-group per band group will be used
     scalapack distributed-memory algorithm (size of sub-group:  4*  4 procs)

 
     Parallelization info
     --------------------
     sticks:   dense  smooth     PW     G-vecs:    dense   smooth      PW
     Min         203      68     20                 7792     1499     255
     Max         204      69     21                 7794     1502     257
     Sum        8159    2723    835               311741    60035   10261
 


     bravais-lattice index     =            0
     lattice parameter (alat)  =      18.5969  a.u.
     unit-cell volume          =     955.3444 (a.u.)^3
     number of atoms/cell      =            5
     number of atomic types    =            2
     number of electrons       =        78.00
     number of Kohn-Sham states=           82
     kinetic-energy cutoff     =      60.0000  Ry
     charge density cutoff     =     720.0000  Ry
     convergence threshold     =      1.0E-12
     mixing beta               =       0.7000
     number of iterations used =            8  plain     mixing
     Exchange-correlation      =  SLA  PW   PBX  PBC ( 1  4  3  4 0 0)
     Non magnetic calculation with spin-orbit


     celldm(1)=  18.596914  celldm(2)=   0.000000  celldm(3)=   0.000000
     celldm(4)=   0.000000  celldm(5)=   0.000000  celldm(6)=   0.000000

     crystal axes: (cart. coord. in units of alat)
               a(1) = (  -0.210242  -0.121383   0.970085 )  
               a(2) = (   0.210242  -0.121383   0.970085 )  
               a(3) = (   0.000000   0.242766   0.970085 )  

     reciprocal axes: (cart. coord. in units 2 pi/alat)
               b(1) = ( -2.378217 -1.373064  0.343613 )  
               b(2) = (  2.378217 -1.373064  0.343613 )  
               b(3) = (  0.000000  2.746129  0.343613 )  


     PseudoPot. # 1 for Bi read from file:
     ../PP/Bi.rel-pbe-dn-kjpaw_psl.1.0.0.UPF
     MD5 check sum: bd070c315d001126676c8eb4b614763a
     Pseudo is Projector augmented-wave + core cor, Zval = 15.0
     Generated using "atomic" code by A. Dal Corso  v.6.1
     Shape of augmentation charge: PSQ
     Using radial grid of 1283 points, 10 beta functions with: 
                l(1) =   0
                l(2) =   0
                l(3) =   1
                l(4) =   1
                l(5) =   1
                l(6) =   1
                l(7) =   2
                l(8) =   2
                l(9) =   2
               l(10) =   2
     Q(r) pseudized with 0 coefficients 


     PseudoPot. # 2 for Se read from file:
     ../PP/Se.rel-pbe-dn-kjpaw_psl.1.0.0.UPF
     MD5 check sum: cf4a46bb3dffd39c94069db90665377e
     Pseudo is Projector augmented-wave + core cor, Zval = 16.0
     Generated using "atomic" code by A. Dal Corso  v.6.1
     Shape of augmentation charge: PSQ
     Using radial grid of 1211 points, 10 beta functions with: 
                l(1) =   0
                l(2) =   0
                l(3) =   1
                l(4) =   1
                l(5) =   1
                l(6) =   1
                l(7) =   2
                l(8) =   2
                l(9) =   2
               l(10) =   2
     Q(r) pseudized with 0 coefficients 


     atomic species   valence    mass     pseudopotential
        Bi            15.00   208.98040     Bi( 1.00)
        Se            16.00    78.96000     Se( 1.00)

     12 Sym. Ops., with inversion, found


                                    s                        frac. trans.

      isym =  1     identity                                     

 cryst.   s( 1) = (     1          0          0      )
                  (     0          1          0      )
                  (     0          0          1      )

 cart.    s( 1) = (  1.0000000 -0.0000000  0.0000000 )
                  ( -0.0000000  1.0000000 -0.0000000 )
                  ( -0.0000000 -0.0000000  1.0000000 )


      isym =  2     180 deg rotation - cart. axis [1,0,0]        

 cryst.   s( 2) = (     0         -1          0      )
                  (    -1          0          0      )
                  (     0          0         -1      )

 cart.    s( 2) = (  1.0000000  0.0000000 -0.0000000 )
                  ( -0.0000000 -1.0000000  0.0000000 )
                  ( -0.0000000  0.0000000 -1.0000000 )


      isym =  3     120 deg rotation - cryst. axis [0,0,1]       

 cryst.   s( 3) = (     0          1          0      )
                  (     0          0          1      )
                  (     1          0          0      )

 cart.    s( 3) = ( -0.5000000 -0.8660254  0.0000000 )
                  (  0.8660254 -0.5000000 -0.0000000 )
                  ( -0.0000000  0.0000000  1.0000000 )


      isym =  4     120 deg rotation - cryst. axis [0,0,-1]      

 cryst.   s( 4) = (     0          0          1      )
                  (     1          0          0      )
                  (     0          1          0      )

 cart.    s( 4) = ( -0.5000000  0.8660254  0.0000000 )
                  ( -0.8660254 -0.5000000 -0.0000000 )
                  (  0.0000000  0.0000000  1.0000000 )


      isym =  5     180 deg rotation - cryst. axis [0,1,0]       

 cryst.   s( 5) = (    -1          0          0      )
                  (     0          0         -1      )
                  (     0         -1          0      )

 cart.    s( 5) = ( -0.5000000 -0.8660254 -0.0000000 )
                  ( -0.8660254  0.5000000  0.0000000 )
                  (  0.0000000 -0.0000000 -1.0000000 )


      isym =  6     180 deg rotation - cryst. axis [1,1,0]       

 cryst.   s( 6) = (     0          0         -1      )
                  (     0         -1          0      )
                  (    -1          0          0      )

 cart.    s( 6) = ( -0.5000000  0.8660254 -0.0000000 )
                  (  0.8660254  0.5000000  0.0000000 )
                  ( -0.0000000 -0.0000000 -1.0000000 )


      isym =  7     inversion                                    

 cryst.   s( 7) = (    -1          0          0      )
                  (     0         -1          0      )
                  (     0          0         -1      )

 cart.    s( 7) = ( -1.0000000  0.0000000 -0.0000000 )
                  (  0.0000000 -1.0000000  0.0000000 )
                  (  0.0000000  0.0000000 -1.0000000 )


      isym =  8     inv. 180 deg rotation - cart. axis [1,0,0]   

 cryst.   s( 8) = (     0          1          0      )
                  (     1          0          0      )
                  (     0          0          1      )

 cart.    s( 8) = ( -1.0000000 -0.0000000  0.0000000 )
                  (  0.0000000  1.0000000 -0.0000000 )
                  (  0.0000000 -0.0000000  1.0000000 )


      isym =  9     inv. 120 deg rotation - cryst. axis [0,0,1]  

 cryst.   s( 9) = (     0         -1          0      )
                  (     0          0         -1      )
                  (    -1          0          0      )

 cart.    s( 9) = (  0.5000000  0.8660254 -0.0000000 )
                  ( -0.8660254  0.5000000  0.0000000 )
                  (  0.0000000 -0.0000000 -1.0000000 )


      isym = 10     inv. 120 deg rotation - cryst. axis [0,0,-1] 

 cryst.   s(10) = (     0          0         -1      )
                  (    -1          0          0      )
                  (     0         -1          0      )

 cart.    s(10) = (  0.5000000 -0.8660254 -0.0000000 )
                  (  0.8660254  0.5000000  0.0000000 )
                  ( -0.0000000 -0.0000000 -1.0000000 )


      isym = 11     inv. 180 deg rotation - cryst. axis [0,1,0]  

 cryst.   s(11) = (     1          0          0      )
                  (     0          0          1      )
                  (     0          1          0      )

 cart.    s(11) = (  0.5000000  0.8660254  0.0000000 )
                  (  0.8660254 -0.5000000 -0.0000000 )
                  ( -0.0000000  0.0000000  1.0000000 )


      isym = 12     inv. 180 deg rotation - cryst. axis [1,1,0]  

 cryst.   s(12) = (     0          0          1      )
                  (     0          1          0      )
                  (     1          0          0      )

 cart.    s(12) = (  0.5000000 -0.8660254  0.0000000 )
                  ( -0.8660254 -0.5000000 -0.0000000 )
                  (  0.0000000  0.0000000  1.0000000 )


   Cartesian axes

     site n.     atom                  positions (alat units)
         1           Bi  tau(   1) = (   0.0000000   0.0000000  -1.1648382  )
         2           Se  tau(   2) = (   0.0000000   0.0000000   0.0000000  )
         3           Bi  tau(   3) = (  -0.0000000  -0.0000000   1.1648382  )
         4           Se  tau(   4) = (  -0.0000000   0.0000000  -0.6128911  )
         5           Se  tau(   5) = (   0.0000000  -0.0000000   0.6128911  )

   Crystallographic axes

     site n.     atom                  positions (cryst. coord.)
         1           Bi  tau(   1) = ( -0.4002530 -0.4002530 -0.4002530  )
         2           Se  tau(   2) = (  0.0000000  0.0000000  0.0000000  )
         3           Bi  tau(   3) = (  0.4002530  0.4002530  0.4002530  )
         4           Se  tau(   4) = ( -0.2105971 -0.2105971 -0.2105971  )
         5           Se  tau(   5) = (  0.2105971  0.2105971  0.2105971  )

     number of k points=   146
                       cart. coord. in units 2pi/alat
        k(    1) = (   0.0000000   0.0000000   0.0000000), wk =   0.0007513
        k(    2) = (   0.0000000   0.2496481   0.0312375), wk =   0.0045079
        k(    3) = (   0.0000000   0.4992961   0.0624750), wk =   0.0045079
        k(    4) = (   0.0000000   0.7489442   0.0937125), wk =   0.0045079
        k(    5) = (   0.0000000   0.9985923   0.1249500), wk =   0.0045079
        k(    6) = (   0.0000000   1.2482404   0.1561875), wk =   0.0045079
        k(    7) = (   0.2162016   0.1248240   0.0624750), wk =   0.0045079
        k(    8) = (   0.2162016   0.3744721   0.0937125), wk =   0.0090158
        k(    9) = (   0.2162016   0.6241202   0.1249500), wk =   0.0090158
        k(   10) = (   0.2162016   0.8737683   0.1561875), wk =   0.0090158
        k(   11) = (   0.2162016   1.1234163   0.1874250), wk =   0.0090158
        k(   12) = (   0.2162016  -1.3730644  -0.1249500), wk =   0.0090158
        k(   13) = (   0.2162016  -1.1234163  -0.0937125), wk =   0.0090158
        k(   14) = (   0.2162016  -0.8737683  -0.0624750), wk =   0.0090158
        k(   15) = (   0.2162016  -0.6241202  -0.0312375), wk =   0.0090158
        k(   16) = (   0.2162016  -0.3744721  -0.0000000), wk =   0.0045079
        k(   17) = (   0.4324031   0.2496481   0.1249500), wk =   0.0045079
        k(   18) = (   0.4324031   0.4992961   0.1561875), wk =   0.0090158
        k(   19) = (   0.4324031   0.7489442   0.1874250), wk =   0.0090158
        k(   20) = (   0.4324031   0.9985923   0.2186625), wk =   0.0090158
        k(   21) = (   0.4324031  -1.4978884  -0.0937125), wk =   0.0090158
        k(   22) = (   0.4324031  -1.2482404  -0.0624750), wk =   0.0090158
        k(   23) = (   0.4324031  -0.9985923  -0.0312375), wk =   0.0090158
        k(   24) = (   0.4324031  -0.7489442   0.0000000), wk =   0.0045079
        k(   25) = (   0.6486047   0.3744721   0.1874250), wk =   0.0045079
        k(   26) = (   0.6486047   0.6241202   0.2186625), wk =   0.0090158
        k(   27) = (   0.6486047   0.8737683   0.2499000), wk =   0.0090158
        k(   28) = (   0.6486047  -1.6227125  -0.0624750), wk =   0.0090158
        k(   29) = (   0.6486047  -1.3730644  -0.0312375), wk =   0.0090158
        k(   30) = (   0.6486047  -1.1234163  -0.0000000), wk =   0.0045079
        k(   31) = (   0.8648063   0.4992961   0.2499000), wk =   0.0045079
        k(   32) = (   0.8648063   0.7489442   0.2811375), wk =   0.0090158
        k(   33) = (   0.8648063  -1.7475365  -0.0312375), wk =   0.0090158
        k(   34) = (   0.8648063  -1.4978884   0.0000000), wk =   0.0045079
        k(   35) = (   1.0810079   0.6241202   0.3123750), wk =   0.0045079
        k(   36) = (   1.0810079  -1.8723606  -0.0000000), wk =   0.0045079
        k(   37) = (  -0.0000000  -0.0000000   0.0937125), wk =   0.0015026
        k(   38) = (  -0.0000000   0.2496481   0.1249500), wk =   0.0045079
        k(   39) = (   0.0000000   0.4992961   0.1561875), wk =   0.0045079
        k(   40) = (   0.0000000   0.7489442   0.1874250), wk =   0.0045079
        k(   41) = (   0.0000000   0.9985923   0.2186625), wk =   0.0045079
        k(   42) = (  -0.0000000  -1.4978884  -0.0937125), wk =   0.0045079
        k(   43) = (  -0.0000000  -1.2482404  -0.0624750), wk =   0.0045079
        k(   44) = (  -0.0000000  -0.9985923  -0.0312375), wk =   0.0045079
        k(   45) = (  -0.0000000  -0.7489442   0.0000000), wk =   0.0045079
        k(   46) = (  -0.0000000  -0.4992961   0.0312375), wk =   0.0045079
        k(   47) = (   0.2162016   0.1248240   0.1561875), wk =   0.0045079
        k(   48) = (   0.2162016   0.3744721   0.1874250), wk =   0.0090158
        k(   49) = (   0.2162016   0.6241202   0.2186625), wk =   0.0090158
        k(   50) = (   0.2162016   0.8737683   0.2499000), wk =   0.0090158
        k(   51) = (   0.2162016  -1.6227125  -0.0624750), wk =   0.0090158
        k(   52) = (   0.2162016  -1.3730644  -0.0312375), wk =   0.0090158
        k(   53) = (   0.2162016  -1.1234163   0.0000000), wk =   0.0090158
        k(   54) = (   0.2162016  -0.8737683   0.0312375), wk =   0.0090158
        k(   55) = (   0.2162016  -0.6241202   0.0624750), wk =   0.0090158
        k(   56) = (   0.4324031   0.2496481   0.2186625), wk =   0.0045079
        k(   57) = (   0.4324031   0.4992961   0.2499000), wk =   0.0090158
        k(   58) = (   0.4324031   0.7489442   0.2811375), wk =   0.0090158
        k(   59) = (   0.4324031  -1.7475365  -0.0312375), wk =   0.0090158
        k(   60) = (   0.4324031  -1.4978884  -0.0000000), wk =   0.0090158
        k(   61) = (   0.4324031  -1.2482404   0.0312375), wk =   0.0090158
        k(   62) = (   0.4324031  -0.9985923   0.0624750), wk =   0.0090158
        k(   63) = (   0.4324031  -0.7489442   0.0937125), wk =   0.0090158
        k(   64) = (   0.6486047   0.3744721   0.2811375), wk =   0.0045079
        k(   65) = (   0.6486047   0.6241202   0.3123750), wk =   0.0090158
        k(   66) = (   0.6486047  -1.8723606   0.0000000), wk =   0.0090158
        k(   67) = (   0.6486047  -1.6227125   0.0312375), wk =   0.0090158
        k(   68) = (   0.6486047  -1.3730644   0.0624750), wk =   0.0090158
        k(   69) = (   0.6486047  -1.1234163   0.0937125), wk =   0.0090158
        k(   70) = (   0.6486047  -0.8737683   0.1249500), wk =   0.0090158
        k(   71) = (   0.8648063   0.4992961   0.3436125), wk =   0.0045079
        k(   72) = (   0.8648063  -1.9971846   0.0312375), wk =   0.0090158
        k(   73) = (   0.8648063  -1.7475365   0.0624750), wk =   0.0090158
        k(   74) = (   0.8648063  -1.4978884   0.0937125), wk =   0.0090158
        k(   75) = (   0.8648063  -1.2482404   0.1249500), wk =   0.0090158
        k(   76) = (   0.8648063  -0.9985923   0.1561875), wk =   0.0090158
        k(   77) = (  -1.2972094  -0.7489442  -0.2811375), wk =   0.0045079
        k(   78) = (  -1.2972094  -0.4992961  -0.2499000), wk =   0.0090158
        k(   79) = (  -1.2972094  -0.2496481  -0.2186625), wk =   0.0090158
        k(   80) = (  -1.2972094   0.0000000  -0.1874250), wk =   0.0090158
        k(   81) = (  -1.0810079  -0.6241202  -0.2186625), wk =   0.0045079
        k(   82) = (  -1.0810079  -0.3744721  -0.1874250), wk =   0.0090158
        k(   83) = (  -1.0810079  -0.1248240  -0.1561875), wk =   0.0090158
        k(   84) = (  -0.8648063  -0.4992961  -0.1561875), wk =   0.0045079
        k(   85) = (  -0.8648063  -0.2496481  -0.1249500), wk =   0.0090158
        k(   86) = (  -0.6486047  -0.3744721  -0.0937125), wk =   0.0045079
        k(   87) = (  -0.0000000  -0.0000000   0.1874250), wk =   0.0015026
        k(   88) = (  -0.0000000   0.2496481   0.2186625), wk =   0.0045079
        k(   89) = (  -0.0000000   0.4992961   0.2499000), wk =   0.0045079
        k(   90) = (   0.0000000   0.7489442   0.2811375), wk =   0.0045079
        k(   91) = (  -0.0000000  -1.7475365  -0.0312375), wk =   0.0045079
        k(   92) = (  -0.0000000  -1.4978884   0.0000000), wk =   0.0045079
        k(   93) = (  -0.0000000  -1.2482404   0.0312375), wk =   0.0045079
        k(   94) = (  -0.0000000  -0.9985923   0.0624750), wk =   0.0045079
        k(   95) = (   0.2162016   0.1248240   0.2499000), wk =   0.0045079
        k(   96) = (   0.2162016   0.3744721   0.2811375), wk =   0.0090158
        k(   97) = (   0.2162016   0.6241202   0.3123750), wk =   0.0090158
        k(   98) = (   0.2162016  -1.8723606  -0.0000000), wk =   0.0090158
        k(   99) = (   0.2162016  -1.6227125   0.0312375), wk =   0.0090158
        k(  100) = (   0.2162016  -1.3730644   0.0624750), wk =   0.0090158
        k(  101) = (   0.2162016  -1.1234163   0.0937125), wk =   0.0090158
        k(  102) = (   0.4324031   0.2496481   0.3123750), wk =   0.0045079
        k(  103) = (   0.4324031   0.4992961   0.3436125), wk =   0.0090158
        k(  104) = (   0.4324031  -1.9971846   0.0312375), wk =   0.0090158
        k(  105) = (   0.4324031  -1.7475365   0.0624750), wk =   0.0090158
        k(  106) = (   0.4324031  -1.4978884   0.0937125), wk =   0.0090158
        k(  107) = (   0.4324031  -1.2482404   0.1249500), wk =   0.0090158
        k(  108) = (   0.6486047   0.3744721   0.3748500), wk =   0.0045079
        k(  109) = (   0.6486047  -2.1220086   0.0624750), wk =   0.0090158
        k(  110) = (   0.6486047  -1.8723606   0.0937125), wk =   0.0090158
        k(  111) = (   0.6486047  -1.6227125   0.1249500), wk =   0.0090158
        k(  112) = (   0.6486047  -1.3730644   0.1561875), wk =   0.0090158
        k(  113) = (  -1.5134110  -0.8737683  -0.2499000), wk =   0.0045079
        k(  114) = (  -1.5134110  -0.6241202  -0.2186625), wk =   0.0090158
        k(  115) = (  -1.5134110  -0.3744721  -0.1874250), wk =   0.0090158
        k(  116) = (  -1.2972094  -0.7489442  -0.1874250), wk =   0.0045079
        k(  117) = (  -1.2972094  -0.4992961  -0.1561875), wk =   0.0090158
        k(  118) = (  -1.0810079  -0.6241202  -0.1249500), wk =   0.0045079
        k(  119) = (   0.0000000  -0.0000000   0.2811375), wk =   0.0015026
        k(  120) = (   0.0000000   0.2496481   0.3123750), wk =   0.0045079
        k(  121) = (   0.0000000   0.4992961   0.3436125), wk =   0.0045079
        k(  122) = (   0.0000000  -1.9971846   0.0312375), wk =   0.0045079
        k(  123) = (   0.0000000  -1.7475365   0.0624750), wk =   0.0045079
        k(  124) = (   0.0000000  -1.4978884   0.0937125), wk =   0.0045079
        k(  125) = (   0.2162016   0.1248240   0.3436125), wk =   0.0045079
        k(  126) = (   0.2162016   0.3744721   0.3748500), wk =   0.0090158
        k(  127) = (   0.2162016  -2.1220086   0.0624750), wk =   0.0090158
        k(  128) = (   0.2162016  -1.8723606   0.0937125), wk =   0.0090158
        k(  129) = (   0.2162016  -1.6227125   0.1249500), wk =   0.0090158
        k(  130) = (   0.4324031   0.2496481   0.4060876), wk =   0.0045079
        k(  131) = (   0.4324031  -2.2468327   0.0937125), wk =   0.0090158
        k(  132) = (   0.4324031  -1.9971846   0.1249500), wk =   0.0090158
        k(  133) = (   0.4324031  -1.7475365   0.1561875), wk =   0.0090158
        k(  134) = (  -1.7296126  -0.9985923  -0.2186625), wk =   0.0045079
        k(  135) = (  -1.7296126  -0.7489442  -0.1874250), wk =   0.0090158
        k(  136) = (  -1.5134110  -0.8737683  -0.1561875), wk =   0.0045079
        k(  137) = (  -0.0000000  -0.0000000   0.3748500), wk =   0.0015026
        k(  138) = (  -0.0000000   0.2496481   0.4060876), wk =   0.0045079
        k(  139) = (  -0.0000000  -2.2468327   0.0937125), wk =   0.0045079
        k(  140) = (  -0.0000000  -1.9971846   0.1249500), wk =   0.0045079
        k(  141) = (   0.2162016   0.1248240   0.4373251), wk =   0.0045079
        k(  142) = (   0.2162016  -2.3716567   0.1249500), wk =   0.0090158
        k(  143) = (   0.2162016  -2.1220086   0.1561875), wk =   0.0090158
        k(  144) = (  -1.9458142  -1.1234163  -0.1874250), wk =   0.0045079
        k(  145) = (  -0.0000000  -0.0000000   0.4685626), wk =   0.0015026
        k(  146) = (  -0.0000000  -2.4964807   0.1561875), wk =   0.0045079

                       cryst. coord.
        k(    1) = (   0.0000000   0.0000000   0.0000000), wk =   0.0007513
        k(    2) = (   0.0000000   0.0000000   0.0909091), wk =   0.0045079
        k(    3) = (   0.0000000   0.0000000   0.1818182), wk =   0.0045079
        k(    4) = (   0.0000000   0.0000000   0.2727273), wk =   0.0045079
        k(    5) = (   0.0000000   0.0000000   0.3636364), wk =   0.0045079
        k(    6) = (   0.0000000   0.0000000   0.4545455), wk =   0.0045079
        k(    7) = (   0.0000000   0.0909091   0.0909091), wk =   0.0045079
        k(    8) = (   0.0000000   0.0909091   0.1818182), wk =   0.0090158
        k(    9) = (   0.0000000   0.0909091   0.2727273), wk =   0.0090158
        k(   10) = (   0.0000000   0.0909091   0.3636364), wk =   0.0090158
        k(   11) = (   0.0000000   0.0909091   0.4545455), wk =   0.0090158
        k(   12) = (  -0.0000000   0.0909091  -0.4545455), wk =   0.0090158
        k(   13) = (  -0.0000000   0.0909091  -0.3636364), wk =   0.0090158
        k(   14) = (  -0.0000000   0.0909091  -0.2727273), wk =   0.0090158
        k(   15) = (   0.0000000   0.0909091  -0.1818182), wk =   0.0090158
        k(   16) = (   0.0000000   0.0909091  -0.0909091), wk =   0.0045079
        k(   17) = (   0.0000000   0.1818182   0.1818182), wk =   0.0045079
        k(   18) = (   0.0000000   0.1818182   0.2727273), wk =   0.0090158
        k(   19) = (   0.0000000   0.1818182   0.3636364), wk =   0.0090158
        k(   20) = (   0.0000000   0.1818182   0.4545455), wk =   0.0090158
        k(   21) = (   0.0000000   0.1818182  -0.4545455), wk =   0.0090158
        k(   22) = (  -0.0000000   0.1818182  -0.3636364), wk =   0.0090158
        k(   23) = (   0.0000000   0.1818182  -0.2727273), wk =   0.0090158
        k(   24) = (   0.0000000   0.1818182  -0.1818182), wk =   0.0045079
        k(   25) = (   0.0000000   0.2727273   0.2727273), wk =   0.0045079
        k(   26) = (   0.0000000   0.2727273   0.3636364), wk =   0.0090158
        k(   27) = (   0.0000000   0.2727273   0.4545455), wk =   0.0090158
        k(   28) = (   0.0000000   0.2727273  -0.4545455), wk =   0.0090158
        k(   29) = (   0.0000000   0.2727273  -0.3636364), wk =   0.0090158
        k(   30) = (  -0.0000000   0.2727273  -0.2727273), wk =   0.0045079
        k(   31) = (   0.0000000   0.3636364   0.3636364), wk =   0.0045079
        k(   32) = (   0.0000000   0.3636364   0.4545455), wk =   0.0090158
        k(   33) = (  -0.0000000   0.3636364  -0.4545455), wk =   0.0090158
        k(   34) = (   0.0000000   0.3636364  -0.3636364), wk =   0.0045079
        k(   35) = (   0.0000000   0.4545455   0.4545455), wk =   0.0045079
        k(   36) = (   0.0000000   0.4545455  -0.4545455), wk =   0.0045079
        k(   37) = (   0.0909091   0.0909091   0.0909091), wk =   0.0015026
        k(   38) = (   0.0909091   0.0909091   0.1818182), wk =   0.0045079
        k(   39) = (   0.0909091   0.0909091   0.2727273), wk =   0.0045079
        k(   40) = (   0.0909091   0.0909091   0.3636364), wk =   0.0045079
        k(   41) = (   0.0909091   0.0909091   0.4545455), wk =   0.0045079
        k(   42) = (   0.0909091   0.0909091  -0.4545455), wk =   0.0045079
        k(   43) = (   0.0909091   0.0909091  -0.3636364), wk =   0.0045079
        k(   44) = (   0.0909091   0.0909091  -0.2727273), wk =   0.0045079
        k(   45) = (   0.0909091   0.0909091  -0.1818182), wk =   0.0045079
        k(   46) = (   0.0909091   0.0909091  -0.0909091), wk =   0.0045079
        k(   47) = (   0.0909091   0.1818182   0.1818182), wk =   0.0045079
        k(   48) = (   0.0909091   0.1818182   0.2727273), wk =   0.0090158
        k(   49) = (   0.0909091   0.1818182   0.3636364), wk =   0.0090158
        k(   50) = (   0.0909091   0.1818182   0.4545455), wk =   0.0090158
        k(   51) = (   0.0909091   0.1818182  -0.4545455), wk =   0.0090158
        k(   52) = (   0.0909091   0.1818182  -0.3636364), wk =   0.0090158
        k(   53) = (   0.0909091   0.1818182  -0.2727273), wk =   0.0090158
        k(   54) = (   0.0909091   0.1818182  -0.1818182), wk =   0.0090158
        k(   55) = (   0.0909091   0.1818182  -0.0909091), wk =   0.0090158
        k(   56) = (   0.0909091   0.2727273   0.2727273), wk =   0.0045079
        k(   57) = (   0.0909091   0.2727273   0.3636364), wk =   0.0090158
        k(   58) = (   0.0909091   0.2727273   0.4545455), wk =   0.0090158
        k(   59) = (   0.0909091   0.2727273  -0.4545455), wk =   0.0090158
        k(   60) = (   0.0909091   0.2727273  -0.3636364), wk =   0.0090158
        k(   61) = (   0.0909091   0.2727273  -0.2727273), wk =   0.0090158
        k(   62) = (   0.0909091   0.2727273  -0.1818182), wk =   0.0090158
        k(   63) = (   0.0909091   0.2727273  -0.0909091), wk =   0.0090158
        k(   64) = (   0.0909091   0.3636364   0.3636364), wk =   0.0045079
        k(   65) = (   0.0909091   0.3636364   0.4545455), wk =   0.0090158
        k(   66) = (   0.0909091   0.3636364  -0.4545455), wk =   0.0090158
        k(   67) = (   0.0909091   0.3636364  -0.3636364), wk =   0.0090158
        k(   68) = (   0.0909091   0.3636364  -0.2727273), wk =   0.0090158
        k(   69) = (   0.0909091   0.3636364  -0.1818182), wk =   0.0090158
        k(   70) = (   0.0909091   0.3636364  -0.0909091), wk =   0.0090158
        k(   71) = (   0.0909091   0.4545455   0.4545455), wk =   0.0045079
        k(   72) = (   0.0909091   0.4545455  -0.4545455), wk =   0.0090158
        k(   73) = (   0.0909091   0.4545455  -0.3636364), wk =   0.0090158
        k(   74) = (   0.0909091   0.4545455  -0.2727273), wk =   0.0090158
        k(   75) = (   0.0909091   0.4545455  -0.1818182), wk =   0.0090158
        k(   76) = (   0.0909091   0.4545455  -0.0909091), wk =   0.0090158
        k(   77) = (   0.0909091  -0.4545455  -0.4545455), wk =   0.0045079
        k(   78) = (   0.0909091  -0.4545455  -0.3636364), wk =   0.0090158
        k(   79) = (   0.0909091  -0.4545455  -0.2727273), wk =   0.0090158
        k(   80) = (   0.0909091  -0.4545455  -0.1818182), wk =   0.0090158
        k(   81) = (   0.0909091  -0.3636364  -0.3636364), wk =   0.0045079
        k(   82) = (   0.0909091  -0.3636364  -0.2727273), wk =   0.0090158
        k(   83) = (   0.0909091  -0.3636364  -0.1818182), wk =   0.0090158
        k(   84) = (   0.0909091  -0.2727273  -0.2727273), wk =   0.0045079
        k(   85) = (   0.0909091  -0.2727273  -0.1818182), wk =   0.0090158
        k(   86) = (   0.0909091  -0.1818182  -0.1818182), wk =   0.0045079
        k(   87) = (   0.1818182   0.1818182   0.1818182), wk =   0.0015026
        k(   88) = (   0.1818182   0.1818182   0.2727273), wk =   0.0045079
        k(   89) = (   0.1818182   0.1818182   0.3636364), wk =   0.0045079
        k(   90) = (   0.1818182   0.1818182   0.4545455), wk =   0.0045079
        k(   91) = (   0.1818182   0.1818182  -0.4545455), wk =   0.0045079
        k(   92) = (   0.1818182   0.1818182  -0.3636364), wk =   0.0045079
        k(   93) = (   0.1818182   0.1818182  -0.2727273), wk =   0.0045079
        k(   94) = (   0.1818182   0.1818182  -0.1818182), wk =   0.0045079
        k(   95) = (   0.1818182   0.2727273   0.2727273), wk =   0.0045079
        k(   96) = (   0.1818182   0.2727273   0.3636364), wk =   0.0090158
        k(   97) = (   0.1818182   0.2727273   0.4545455), wk =   0.0090158
        k(   98) = (   0.1818182   0.2727273  -0.4545455), wk =   0.0090158
        k(   99) = (   0.1818182   0.2727273  -0.3636364), wk =   0.0090158
        k(  100) = (   0.1818182   0.2727273  -0.2727273), wk =   0.0090158
        k(  101) = (   0.1818182   0.2727273  -0.1818182), wk =   0.0090158
        k(  102) = (   0.1818182   0.3636364   0.3636364), wk =   0.0045079
        k(  103) = (   0.1818182   0.3636364   0.4545455), wk =   0.0090158
        k(  104) = (   0.1818182   0.3636364  -0.4545455), wk =   0.0090158
        k(  105) = (   0.1818182   0.3636364  -0.3636364), wk =   0.0090158
        k(  106) = (   0.1818182   0.3636364  -0.2727273), wk =   0.0090158
        k(  107) = (   0.1818182   0.3636364  -0.1818182), wk =   0.0090158
        k(  108) = (   0.1818182   0.4545455   0.4545455), wk =   0.0045079
        k(  109) = (   0.1818182   0.4545455  -0.4545455), wk =   0.0090158
        k(  110) = (   0.1818182   0.4545455  -0.3636364), wk =   0.0090158
        k(  111) = (   0.1818182   0.4545455  -0.2727273), wk =   0.0090158
        k(  112) = (   0.1818182   0.4545455  -0.1818182), wk =   0.0090158
        k(  113) = (   0.1818182  -0.4545455  -0.4545455), wk =   0.0045079
        k(  114) = (   0.1818182  -0.4545455  -0.3636364), wk =   0.0090158
        k(  115) = (   0.1818182  -0.4545455  -0.2727273), wk =   0.0090158
        k(  116) = (   0.1818182  -0.3636364  -0.3636364), wk =   0.0045079
        k(  117) = (   0.1818182  -0.3636364  -0.2727273), wk =   0.0090158
        k(  118) = (   0.1818182  -0.2727273  -0.2727273), wk =   0.0045079
        k(  119) = (   0.2727273   0.2727273   0.2727273), wk =   0.0015026
        k(  120) = (   0.2727273   0.2727273   0.3636364), wk =   0.0045079
        k(  121) = (   0.2727273   0.2727273   0.4545455), wk =   0.0045079
        k(  122) = (   0.2727273   0.2727273  -0.4545455), wk =   0.0045079
        k(  123) = (   0.2727273   0.2727273  -0.3636364), wk =   0.0045079
        k(  124) = (   0.2727273   0.2727273  -0.2727273), wk =   0.0045079
        k(  125) = (   0.2727273   0.3636364   0.3636364), wk =   0.0045079
        k(  126) = (   0.2727273   0.3636364   0.4545455), wk =   0.0090158
        k(  127) = (   0.2727273   0.3636364  -0.4545455), wk =   0.0090158
        k(  128) = (   0.2727273   0.3636364  -0.3636364), wk =   0.0090158
        k(  129) = (   0.2727273   0.3636364  -0.2727273), wk =   0.0090158
        k(  130) = (   0.2727273   0.4545455   0.4545455), wk =   0.0045079
        k(  131) = (   0.2727273   0.4545455  -0.4545455), wk =   0.0090158
        k(  132) = (   0.2727273   0.4545455  -0.3636364), wk =   0.0090158
        k(  133) = (   0.2727273   0.4545455  -0.2727273), wk =   0.0090158
        k(  134) = (   0.2727273  -0.4545455  -0.4545455), wk =   0.0045079
        k(  135) = (   0.2727273  -0.4545455  -0.3636364), wk =   0.0090158
        k(  136) = (   0.2727273  -0.3636364  -0.3636364), wk =   0.0045079
        k(  137) = (   0.3636364   0.3636364   0.3636364), wk =   0.0015026
        k(  138) = (   0.3636364   0.3636364   0.4545455), wk =   0.0045079
        k(  139) = (   0.3636364   0.3636364  -0.4545455), wk =   0.0045079
        k(  140) = (   0.3636364   0.3636364  -0.3636364), wk =   0.0045079
        k(  141) = (   0.3636364   0.4545455   0.4545455), wk =   0.0045079
        k(  142) = (   0.3636364   0.4545455  -0.4545455), wk =   0.0090158
        k(  143) = (   0.3636364   0.4545455  -0.3636364), wk =   0.0090158
        k(  144) = (   0.3636364  -0.4545455  -0.4545455), wk =   0.0045079
        k(  145) = (   0.4545455   0.4545455   0.4545455), wk =   0.0015026
        k(  146) = (   0.4545455   0.4545455  -0.4545455), wk =   0.0045079

     Dense  grid:   311741 G-vectors     FFT dimensions: ( 160, 160, 160)

     Smooth grid:    60035 G-vectors     FFT dimensions: (  96,  96,  96)

     Estimated max dynamical RAM per process >     102.73Mb

     Estimated total allocated dynamical RAM >    4109.09Mb

     Initial potential from superposition of free atoms

     starting charge   77.99805, renormalised to   78.00000
     Starting wfc are   90 randomized atomic wfcs
     Checking if some PAW data can be deallocated... 
       node    0, deallocated PAW data for type:  2
       node    1, deallocated PAW data for type:  2
       node    2, deallocated PAW data for type:  2
       node    3, deallocated PAW data for type:  2
       node    4, deallocated PAW data for type:  2
       node    5, deallocated PAW data for type:  2
       node    6, deallocated PAW data for type:  2
       node    7, deallocated PAW data for type:  2
       node    8, deallocated PAW data for type:  1
       node    9, deallocated PAW data for type:  1
       node   10, deallocated PAW data for type:  1
       node   11, deallocated PAW data for type:  1
       node   12, deallocated PAW data for type:  1
       node   13, deallocated PAW data for type:  1
       node   14, deallocated PAW data for type:  1
       node   15, deallocated PAW data for type:  1
       node   16, deallocated PAW data for type:  2
       node   17, deallocated PAW data for type:  2
       node   18, deallocated PAW data for type:  2
       node   19, deallocated PAW data for type:  2
       node   20, deallocated PAW data for type:  2
       node   21, deallocated PAW data for type:  2
       node   22, deallocated PAW data for type:  2
       node   23, deallocated PAW data for type:  2
       node   24, deallocated PAW data for type:  1
       node   25, deallocated PAW data for type:  1
       node   26, deallocated PAW data for type:  1
       node   27, deallocated PAW data for type:  1
       node   28, deallocated PAW data for type:  1
       node   29, deallocated PAW data for type:  1
       node   30, deallocated PAW data for type:  1
       node   31, deallocated PAW data for type:  1
       node   32, deallocated PAW data for type:  1
       node   33, deallocated PAW data for type:  1
       node   34, deallocated PAW data for type:  1
       node   35, deallocated PAW data for type:  1
       node   36, deallocated PAW data for type:  1
       node   37, deallocated PAW data for type:  1
       node   38, deallocated PAW data for type:  1
       node   39, deallocated PAW data for type:  1

     total cpu time spent up to now is       49.2 secs

     per-process dynamical memory:   204.1 Mb

     Self-consistent Calculation

     iteration #  1     ecut=    60.00 Ry     beta=0.70
     Davidson diagonalization with overlap
     ethr =  1.00E-02,  avg # of iterations =  2.0

     Threshold (ethr) on eigenvalues was too large:
     Diagonalizing with lowered threshold

     Davidson diagonalization with overlap
     ethr =  5.06E-04,  avg # of iterations =  2.0

     total cpu time spent up to now is      277.0 secs

     total energy              =   -3034.82353178 Ry
     Harris-Foulkes estimate   =   -3035.09742903 Ry
     estimated scf accuracy    <       0.36042554 Ry

     iteration #  2     ecut=    60.00 Ry     beta=0.70
     Davidson diagonalization with overlap
     ethr =  4.62E-04,  avg # of iterations =  3.7

     total cpu time spent up to now is      427.8 secs

     total energy              =   -3034.49437119 Ry
     Harris-Foulkes estimate   =   -3035.39509545 Ry
     estimated scf accuracy    <       3.32098379 Ry

     iteration #  3     ecut=    60.00 Ry     beta=0.70
     Davidson diagonalization with overlap
     ethr =  4.62E-04,  avg # of iterations =  4.0

     total cpu time spent up to now is      576.0 secs

     total energy              =   -3034.92678500 Ry
     Harris-Foulkes estimate   =   -3035.11157580 Ry
     estimated scf accuracy    <       0.79831204 Ry

     iteration #  4     ecut=    60.00 Ry     beta=0.70
     Davidson diagonalization with overlap
     ethr =  4.62E-04,  avg # of iterations =  3.0

     total cpu time spent up to now is      703.7 secs

     total energy              =   -3035.01546463 Ry
     Harris-Foulkes estimate   =   -3035.01694831 Ry
     estimated scf accuracy    <       0.00497233 Ry

     iteration #  5     ecut=    60.00 Ry     beta=0.70
     Davidson diagonalization with overlap
     ethr =  6.37E-06,  avg # of iterations =  3.7

     total cpu time spent up to now is      846.9 secs

     total energy              =   -3035.01671758 Ry
     Harris-Foulkes estimate   =   -3035.01677283 Ry
     estimated scf accuracy    <       0.00025077 Ry

     iteration #  6     ecut=    60.00 Ry     beta=0.70
     Davidson diagonalization with overlap
     ethr =  3.21E-07,  avg # of iterations =  2.2

     total cpu time spent up to now is      976.2 secs

     total energy              =   -3035.01675014 Ry
     Harris-Foulkes estimate   =   -3035.01676732 Ry
     estimated scf accuracy    <       0.00005792 Ry

     iteration #  7     ecut=    60.00 Ry     beta=0.70
     Davidson diagonalization with overlap
     ethr =  7.43E-08,  avg # of iterations =  2.3

     total cpu time spent up to now is     1097.1 secs

     total energy              =   -3035.01675734 Ry
     Harris-Foulkes estimate   =   -3035.01675744 Ry
     estimated scf accuracy    <       0.00000082 Ry

     iteration #  8     ecut=    60.00 Ry     beta=0.70
     Davidson diagonalization with overlap
     ethr =  1.05E-09,  avg # of iterations =  4.1

     total cpu time spent up to now is     1274.9 secs

     total energy              =   -3035.01675779 Ry
     Harris-Foulkes estimate   =   -3035.01675783 Ry
     estimated scf accuracy    <       0.00000017 Ry

     iteration #  9     ecut=    60.00 Ry     beta=0.70
     Davidson diagonalization with overlap
     ethr =  2.16E-10,  avg # of iterations =  3.0

     total cpu time spent up to now is     1411.9 secs

     total energy              =   -3035.01675782 Ry
     Harris-Foulkes estimate   =   -3035.01675783 Ry
     estimated scf accuracy    <       0.00000004 Ry

     iteration # 10     ecut=    60.00 Ry     beta=0.70
     Davidson diagonalization with overlap
     ethr =  4.72E-11,  avg # of iterations =  2.1

     total cpu time spent up to now is     1538.4 secs

     total energy              =   -3035.01675782 Ry
     Harris-Foulkes estimate   =   -3035.01675782 Ry
     estimated scf accuracy    <          7.7E-10 Ry

     iteration # 11     ecut=    60.00 Ry     beta=0.70
     Davidson diagonalization with overlap
     ethr =  9.81E-13,  avg # of iterations =  4.0

     total cpu time spent up to now is     1687.6 secs

     total energy              =   -3035.01675782 Ry
     Harris-Foulkes estimate   =   -3035.01675782 Ry
     estimated scf accuracy    <          1.3E-10 Ry

     iteration # 12     ecut=    60.00 Ry     beta=0.70
     Davidson diagonalization with overlap
     ethr =  1.62E-13,  avg # of iterations =  2.4

     total cpu time spent up to now is     1817.9 secs

     total energy              =   -3035.01675782 Ry
     Harris-Foulkes estimate   =   -3035.01675782 Ry
     estimated scf accuracy    <          5.2E-12 Ry

     iteration # 13     ecut=    60.00 Ry     beta=0.70
     Davidson diagonalization with overlap
     ethr =  1.00E-13,  avg # of iterations =  1.0

     total cpu time spent up to now is     1926.5 secs

     End of self-consistent calculation

          k = 0.0000 0.0000 0.0000 (  7503 PWs)   bands (ev):

   -39.1521 -39.1521 -39.1519 -39.1519 -39.1467 -39.1467 -39.1467 -39.1467
   -38.9977 -38.9977 -38.9705 -38.9705 -38.2583 -38.2583 -38.2582 -38.2582
   -38.2566 -38.2566 -38.2561 -38.2561 -38.2515 -38.2515 -38.2513 -38.2513
   -38.1056 -38.1056 -38.0944 -38.0944 -38.0703 -38.0703 -15.7289 -15.7289
   -15.7284 -15.7284 -15.7179 -15.7179 -15.7160 -15.7160 -12.7548 -12.7548
   -12.7525 -12.7525 -12.7351 -12.7351 -12.7334 -12.7334 -12.7318 -12.7318
   -12.7314 -12.7314  -5.5399  -5.5399  -4.7310  -4.7310  -4.0843  -4.0843
    -0.6691  -0.6691   0.1278   0.1278   6.1521   6.1521   6.3404   6.3404
     6.8749   6.8749   7.0779   7.0779   7.2393   7.2393   7.2630   7.2630
     7.4950   7.4950   7.7830   7.7830   8.4748   8.4748   8.9045   8.9045
    10.0811  10.0811

     occupation numbers 
     1.0000   1.0000   1.0000   1.0000   1.0000   1.0000   1.0000   1.0000
     1.0000   1.0000   1.0000   1.0000   1.0000   1.0000   1.0000   1.0000
     1.0000   1.0000   1.0000   1.0000   1.0000   1.0000   1.0000   1.0000
     1.0000   1.0000   1.0000   1.0000   1.0000   1.0000   1.0000   1.0000
     1.0000   1.0000   1.0000   1.0000   1.0000   1.0000   1.0000   1.0000
     1.0000   1.0000   1.0000   1.0000   1.0000   1.0000   1.0000   1.0000
     1.0000   1.0000   1.0000   1.0000   1.0000   1.0000   1.0000   1.0000
     1.0000   1.0000   1.0000   1.0000   1.0000   1.0000   1.0000   1.0000
     1.0000   1.0000   1.0000   1.0000   1.0000   1.0000   1.0000   1.0000
     1.0000   1.0000   1.0000   1.0000   1.0000   1.0000   0.0000   0.0000
     0.0000   0.0000

          k = 0.0000 0.2496 0.0312 (  7521 PWs)   bands (ev):

   -39.1522 -39.1522 -39.1519 -39.1519 -39.1468 -39.1468 -39.1467 -39.1467
   -38.9977 -38.9977 -38.9705 -38.9705 -38.2584 -38.2584 -38.2582 -38.2582
   -38.2567 -38.2567 -38.2561 -38.2561 -38.2515 -38.2515 -38.2514 -38.2514
   -38.1056 -38.1056 -38.0944 -38.0944 -38.0703 -38.0703 -15.7284 -15.7284
   -15.7282 -15.7282 -15.7181 -15.7181 -15.7161 -15.7161 -12.7539 -12.7539
   -12.7518 -12.7518 -12.7352 -12.7352 -12.7344 -12.7344 -12.7323 -12.7323
   -12.7309 -12.7309  -5.4661  -5.4661  -4.6706  -4.6706  -4.0373  -4.0373
    -0.7087  -0.7087   0.0490   0.0490   5.7944   5.7944   5.9674   5.9674
     6.5955   6.5955   6.9110   6.9110   7.0832   7.0832   7.4421   7.4421
     7.5325   7.5325   7.7065   7.7065   8.2933   8.2933   9.3095   9.3095
     9.9342   9.9342

     occupation numbers 
     1.0000   1.0000   1.0000   1.0000   1.0000   1.0000   1.0000   1.0000
     1.0000   1.0000   1.0000   1.0000   1.0000   1.0000   1.0000   1.0000
     1.0000   1.0000   1.0000   1.0000   1.0000   1.0000   1.0000   1.0000
     1.0000   1.0000   1.0000   1.0000   1.0000   1.0000   1.0000   1.0000
     1.0000   1.0000   1.0000   1.0000   1.0000   1.0000   1.0000   1.0000
     1.0000   1.0000   1.0000   1.0000   1.0000   1.0000   1.0000   1.0000
     1.0000   1.0000   1.0000   1.0000   1.0000   1.0000   1.0000   1.0000
     1.0000   1.0000   1.0000   1.0000   1.0000   1.0000   1.0000   1.0000
     1.0000   1.0000   1.0000   1.0000   1.0000   1.0000   1.0000   1.0000
     1.0000   1.0000   1.0000   1.0000   1.0000   1.0000   0.0000   0.0000
     0.0000   0.0000

          k = 0.0000 0.4993 0.0625 (  7502 PWs)   bands (ev):

   -39.1522 -39.1522 -39.1519 -39.1519 -39.1467 -39.1467 -39.1466 -39.1466
   -38.9977 -38.9977 -38.9704 -38.9704 -38.2584 -38.2584 -38.2581 -38.2581
   -38.2567 -38.2567 -38.2561 -38.2561 -38.2514 -38.2514 -38.2514 -38.2514
   -38.1056 -38.1056 -38.0944 -38.0944 -38.0703 -38.0703 -15.7271 -15.7271
   -15.7270 -15.7270 -15.7181 -15.7181 -15.7162 -15.7162 -12.7526 -12.7526
   -12.7503 -12.7503 -12.7364 -12.7364 -12.7356 -12.7356 -12.7318 -12.7318
   -12.7289 -12.7289  -5.2485  -5.2485  -4.4985  -4.4985  -3.9063  -3.9063
    -0.8494  -0.8494  -0.1829  -0.1829   5.1871   5.1871   5.3933   5.3933
     5.8453   5.8453   6.3938   6.3938   6.7669   6.7669   7.4113   7.4113
     7.5280   7.5280   7.7894   7.7894   8.2285   8.2285   9.6751   9.6751
    10.0834  10.0834

     occupation numbers 
     1.0000   1.0000   1.0000   1.0000   1.0000   1.0000   1.0000   1.0000
     1.0000   1.0000   1.0000   1.0000   1.0000   1.0000   1.0000   1.0000
     1.0000   1.0000   1.0000   1.0000   1.0000   1.0000   1.0000   1.0000
     1.0000   1.0000   1.0000   1.0000   1.0000   1.0000   1.0000   1.0000
     1.0000   1.0000   1.0000   1.0000   1.0000   1.0000   1.0000   1.0000
     1.0000   1.0000   1.0000   1.0000   1.0000   1.0000   1.0000   1.0000
     1.0000   1.0000   1.0000   1.0000   1.0000   1.0000   1.0000   1.0000
     1.0000   1.0000   1.0000   1.0000   1.0000   1.0000   1.0000   1.0000
     1.0000   1.0000   1.0000   1.0000   1.0000   1.0000   1.0000   1.0000
     1.0000   1.0000   1.0000   1.0000   1.0000   1.0000   0.0000   0.0000
     0.0000   0.0000

          k = 0.0000 0.7489 0.0937 (  7498 PWs)   bands (ev):

   -39.1522 -39.1522 -39.1519 -39.1519 -39.1467 -39.1467 -39.1466 -39.1466
   -38.9977 -38.9977 -38.9704 -38.9704 -38.2584 -38.2584 -38.2582 -38.2582
   -38.2566 -38.2566 -38.2561 -38.2561 -38.2514 -38.2514 -38.2513 -38.2513
   -38.1056 -38.1056 -38.0944 -38.0944 -38.0702 -38.0702 -15.7259 -15.7259
   -15.7255 -15.7255 -15.7179 -15.7179 -15.7165 -15.7165 -12.7533 -12.7533
   -12.7503 -12.7503 -12.7379 -12.7379 -12.7358 -12.7358 -12.7291 -12.7291
   -12.7257 -12.7257  -4.9010  -4.9010  -4.2475  -4.2475  -3.7250  -3.7250
    -1.1293  -1.1293  -0.5327  -0.5327   4.3989   4.3989   5.0483   5.0483
     5.3594   5.3594   6.0518   6.0518   6.2896   6.2896   6.8719   6.8719
     7.5038   7.5038   7.6985   7.6985   8.3005   8.3005   9.5762   9.5762
    10.5547  10.5547

     occupation numbers 
     1.0000   1.0000   1.0000   1.0000   1.0000   1.0000   1.0000   1.0000
     1.0000   1.0000   1.0000   1.0000   1.0000   1.0000   1.0000   1.0000
     1.0000   1.0000   1.0000   1.0000   1.0000   1.0000   1.0000   1.0000
     1.0000   1.0000   1.0000   1.0000   1.0000   1.0000   1.0000   1.0000
     1.0000   1.0000   1.0000   1.0000   1.0000   1.0000   1.0000   1.0000
     1.0000   1.0000   1.0000   1.0000   1.0000   1.0000   1.0000   1.0000
     1.0000   1.0000   1.0000   1.0000   1.0000   1.0000   1.0000   1.0000
     1.0000   1.0000   1.0000   1.0000   1.0000   1.0000   1.0000   1.0000
     1.0000   1.0000   1.0000   1.0000   1.0000   1.0000   1.0000   1.0000
     1.0000   1.0000   1.0000   1.0000   1.0000   1.0000   0.0000   0.0000
     0.0000   0.0000

          k = 0.0000 0.9986 0.1250 (  7490 PWs)   bands (ev):

   -39.1521 -39.1521 -39.1519 -39.1519 -39.1467 -39.1467 -39.1466 -39.1466
   -38.9977 -38.9977 -38.9704 -38.9704 -38.2583 -38.2583 -38.2582 -38.2582
   -38.2565 -38.2565 -38.2562 -38.2562 -38.2514 -38.2514 -38.2512 -38.2512
   -38.1056 -38.1056 -38.0944 -38.0944 -38.0702 -38.0702 -15.7248 -15.7248
   -15.7246 -15.7246 -15.7175 -15.7175 -15.7166 -15.7166 -12.7552 -12.7552
   -12.7526 -12.7526 -12.7382 -12.7382 -12.7352 -12.7352 -12.7257 -12.7257
   -12.7218 -12.7218  -4.4560  -4.4560  -3.9862  -3.9862  -3.5716  -3.5716
    -1.4905  -1.4905  -0.9334  -0.9334   3.7182   3.7182   4.9623   4.9623
     5.1856   5.1856   5.8124   5.8124   5.9332   5.9332   6.3703   6.3703
     7.1222   7.1222   7.6098   7.6098   8.3044   8.3044   9.4862   9.4862
    10.8203  10.8203

     occupation numbers 
     1.0000   1.0000   1.0000   1.0000   1.0000   1.0000   1.0000   1.0000
     1.0000   1.0000   1.0000   1.0000   1.0000   1.0000   1.0000   1.0000
     1.0000   1.0000   1.0000   1.0000   1.0000   1.0000   1.0000   1.0000
     1.0000   1.0000   1.0000   1.0000   1.0000   1.0000   1.0000   1.0000
     1.0000   1.0000   1.0000   1.0000   1.0000   1.0000   1.0000   1.0000
     1.0000   1.0000   1.0000   1.0000   1.0000   1.0000   1.0000   1.0000
     1.0000   1.0000   1.0000   1.0000   1.0000   1.0000   1.0000   1.0000
     1.0000   1.0000   1.0000   1.0000   1.0000   1.0000   1.0000   1.0000
     1.0000   1.0000   1.0000   1.0000   1.0000   1.0000   1.0000   1.0000
     1.0000   1.0000   1.0000   1.0000   1.0000   1.0000   0.0000   0.0000
     0.0000   0.0000

          k = 0.0000 1.2482 0.1562 (  7493 PWs)   bands (ev):

   -39.1521 -39.1521 -39.1520 -39.1520 -39.1466 -39.1466 -39.1466 -39.1466
   -38.9977 -38.9977 -38.9704 -38.9704 -38.2583 -38.2583 -38.2583 -38.2583
   -38.2565 -38.2565 -38.2563 -38.2563 -38.2513 -38.2513 -38.2513 -38.2513
   -38.1056 -38.1056 -38.0944 -38.0944 -38.0702 -38.0702 -15.7243 -15.7243
   -15.7241 -15.7241 -15.7172 -15.7172 -15.7167 -15.7167 -12.7568 -12.7568
   -12.7544 -12.7544 -12.7383 -12.7383 -12.7347 -12.7347 -12.7234 -12.7234
   -12.7193 -12.7193  -3.9976  -3.9976  -3.8097  -3.8097  -3.6092  -3.6092
    -1.7053  -1.7053  -1.2738  -1.2738   3.3450   3.3450   5.0215   5.0215
     5.1557   5.1557   5.6929   5.6929   5.7726   5.7726   6.0887   6.0887
     6.6521   6.6521   7.6083   7.6083   8.3333   8.3333   9.3797   9.3797
    10.8051  10.8051

     occupation numbers 
     1.0000   1.0000   1.0000   1.0000   1.0000   1.0000   1.0000   1.0000
     1.0000   1.0000   1.0000   1.0000   1.0000   1.0000   1.0000   1.0000
     1.0000   1.0000   1.0000   1.0000   1.0000   1.0000   1.0000   1.0000
     1.0000   1.0000   1.0000   1.0000   1.0000   1.0000   1.0000   1.0000
     1.0000   1.0000   1.0000   1.0000   1.0000   1.0000   1.0000   1.0000
     1.0000   1.0000   1.0000   1.0000   1.0000   1.0000   1.0000   1.0000
     1.0000   1.0000   1.0000   1.0000   1.0000   1.0000   1.0000   1.0000
     1.0000   1.0000   1.0000   1.0000   1.0000   1.0000   1.0000   1.0000
     1.0000   1.0000   1.0000   1.0000   1.0000   1.0000   1.0000   1.0000
     1.0000   1.0000   1.0000   1.0000   1.0000   1.0000   0.0000   0.0000
     0.0000   0.0000

          k = 0.2162 0.1248 0.0625 (  7524 PWs)   bands (ev):

   -39.1522 -39.1522 -39.1519 -39.1519 -39.1468 -39.1468 -39.1467 -39.1467
   -38.9977 -38.9977 -38.9705 -38.9705 -38.2584 -38.2584 -38.2582 -38.2582
   -38.2566 -38.2566 -38.2561 -38.2561 -38.2515 -38.2515 -38.2514 -38.2514
   -38.1056 -38.1056 -38.0944 -38.0944 -38.0703 -38.0703 -15.7284 -15.7284
   -15.7282 -15.7282 -15.7181 -15.7181 -15.7161 -15.7161 -12.7539 -12.7539
   -12.7518 -12.7518 -12.7352 -12.7352 -12.7344 -12.7344 -12.7323 -12.7323
   -12.7309 -12.7309  -5.4634  -5.4634  -4.6822  -4.6822  -4.0257  -4.0257
    -0.7207  -0.7207   0.0584   0.0584   5.8121   5.8121   5.9933   5.9933
     6.5727   6.5727   6.8844   6.8844   7.0029   7.0029   7.3931   7.3931
     7.5254   7.5254   7.8532   7.8532   8.3772   8.3772   9.2255   9.2255
     9.9165   9.9165

     occupation numbers 
     1.0000   1.0000   1.0000   1.0000   1.0000   1.0000   1.0000   1.0000
     1.0000   1.0000   1.0000   1.0000   1.0000   1.0000   1.0000   1.0000
     1.0000   1.0000   1.0000   1.0000   1.0000   1.0000   1.0000   1.0000
     1.0000   1.0000   1.0000   1.0000   1.0000   1.0000   1.0000   1.0000
     1.0000   1.0000   1.0000   1.0000   1.0000   1.0000   1.0000   1.0000
     1.0000   1.0000   1.0000   1.0000   1.0000   1.0000   1.0000   1.0000
     1.0000   1.0000   1.0000   1.0000   1.0000   1.0000   1.0000   1.0000
     1.0000   1.0000   1.0000   1.0000   1.0000   1.0000   1.0000   1.0000
     1.0000   1.0000   1.0000   1.0000   1.0000   1.0000   1.0000   1.0000
     1.0000   1.0000   1.0000   1.0000   1.0000   1.0000   0.0000   0.0000
     0.0000   0.0000

          k = 0.2162 0.3745 0.0937 (  7506 PWs)   bands (ev):

   -39.1522 -39.1522 -39.1519 -39.1519 -39.1467 -39.1467 -39.1466 -39.1466
   -38.9977 -38.9977 -38.9705 -38.9705 -38.2584 -38.2584 -38.2582 -38.2582
   -38.2566 -38.2566 -38.2561 -38.2561 -38.2514 -38.2514 -38.2514 -38.2514
   -38.1056 -38.1056 -38.0944 -38.0944 -38.0703 -38.0703 -15.7276 -15.7276
   -15.7273 -15.7273 -15.7182 -15.7182 -15.7161 -15.7161 -12.7529 -12.7529
   -12.7506 -12.7506 -12.7357 -12.7357 -12.7354 -12.7354 -12.7322 -12.7322
   -12.7297 -12.7297  -5.3151  -5.3151  -4.5755  -4.5755  -3.9277  -3.9277
    -0.8121  -0.8121  -0.0997  -0.0997   5.3868   5.3868   5.6175   5.6175
     5.9722   5.9722   6.5721   6.5721   6.8520   6.8520   6.9395   6.9395
     7.7646   7.7646   8.1418   8.1418   8.2912   8.2912   9.5332   9.5332
     9.7933   9.7933

     occupation numbers 
     1.0000   1.0000   1.0000   1.0000   1.0000   1.0000   1.0000   1.0000
     1.0000   1.0000   1.0000   1.0000   1.0000   1.0000   1.0000   1.0000
     1.0000   1.0000   1.0000   1.0000   1.0000   1.0000   1.0000   1.0000
     1.0000   1.0000   1.0000   1.0000   1.0000   1.0000   1.0000   1.0000
     1.0000   1.0000   1.0000   1.0000   1.0000   1.0000   1.0000   1.0000
     1.0000   1.0000   1.0000   1.0000   1.0000   1.0000   1.0000   1.0000
     1.0000   1.0000   1.0000   1.0000   1.0000   1.0000   1.0000   1.0000
     1.0000   1.0000   1.0000   1.0000   1.0000   1.0000   1.0000   1.0000
     1.0000   1.0000   1.0000   1.0000   1.0000   1.0000   1.0000   1.0000
     1.0000   1.0000   1.0000   1.0000   1.0000   1.0000   0.0000   0.0000
     0.0000   0.0000

          k = 0.2162 0.6241 0.1250 (  7505 PWs)   bands (ev):

   -39.1522 -39.1522 -39.1519 -39.1519 -39.1467 -39.1467 -39.1466 -39.1466
   -38.9977 -38.9977 -38.9704 -38.9704 -38.2584 -38.2584 -38.2582 -38.2582
   -38.2566 -38.2566 -38.2561 -38.2561 -38.2514 -38.2514 -38.2513 -38.2513
   -38.1056 -38.1056 -38.0944 -38.0944 -38.0702 -38.0702 -15.7266 -15.7266
   -15.7257 -15.7257 -15.7181 -15.7181 -15.7165 -15.7165 -12.7527 -12.7527
   -12.7495 -12.7495 -12.7372 -12.7372 -12.7361 -12.7361 -12.7303 -12.7303
   -12.7276 -12.7276  -5.0297  -5.0297  -4.3690  -4.3690  -3.7652  -3.7652
    -1.0114  -1.0114  -0.4088  -0.4088   4.8125   4.8125   5.1230   5.1230
     5.4474   5.4474   5.9917   5.9917   6.2968   6.2968   7.0165   7.0165
     7.7534   7.7534   7.8788   7.8788   8.3758   8.3758   9.6250   9.6250
    10.1796  10.1796

     occupation numbers 
     1.0000   1.0000   1.0000   1.0000   1.0000   1.0000   1.0000   1.0000
     1.0000   1.0000   1.0000   1.0000   1.0000   1.0000   1.0000   1.0000
     1.0000   1.0000   1.0000   1.0000   1.0000   1.0000   1.0000   1.0000
     1.0000   1.0000   1.0000   1.0000   1.0000   1.0000   1.0000   1.0000
     1.0000   1.0000   1.0000   1.0000   1.0000   1.0000   1.0000   1.0000
     1.0000   1.0000   1.0000   1.0000   1.0000   1.0000   1.0000   1.0000
     1.0000   1.0000   1.0000   1.0000   1.0000   1.0000   1.0000   1.0000
     1.0000   1.0000   1.0000   1.0000   1.0000   1.0000   1.0000   1.0000
     1.0000   1.0000   1.0000   1.0000   1.0000   1.0000   1.0000   1.0000
     1.0000   1.0000   1.0000   1.0000   1.0000   1.0000   0.0000   0.0000
     0.0000   0.0000

          k = 0.2162 0.8738 0.1562 (  7494 PWs)   bands (ev):

   -39.1521 -39.1521 -39.1519 -39.1519 -39.1467 -39.1467 -39.1466 -39.1466
   -38.9977 -38.9977 -38.9704 -38.9704 -38.2583 -38.2583 -38.2582 -38.2582
   -38.2566 -38.2566 -38.2562 -38.2562 -38.2513 -38.2513 -38.2513 -38.2513
   -38.1056 -38.1056 -38.0944 -38.0944 -38.0702 -38.0702 -15.7255 -15.7255
   -15.7243 -15.7243 -15.7178 -15.7178 -15.7166 -15.7166 -12.7540 -12.7540
   -12.7506 -12.7506 -12.7380 -12.7380 -12.7359 -12.7359 -12.7274 -12.7274
   -12.7241 -12.7241  -4.6293  -4.6293  -4.1082  -4.1082  -3.5916  -3.5916
    -1.3237  -1.3237  -0.8100  -0.8100   4.1093   4.1093   4.8472   4.8472
     5.1580   5.1580   5.5249   5.5249   6.0700   6.0700   6.9988   6.9988
     7.2213   7.2213   7.6113   7.6113   8.1821   8.1821   9.7915   9.7915
    10.6507  10.6507

     occupation numbers 
     1.0000   1.0000   1.0000   1.0000   1.0000   1.0000   1.0000   1.0000
     1.0000   1.0000   1.0000   1.0000   1.0000   1.0000   1.0000   1.0000
     1.0000   1.0000   1.0000   1.0000   1.0000   1.0000   1.0000   1.0000
     1.0000   1.0000   1.0000   1.0000   1.0000   1.0000   1.0000   1.0000
     1.0000   1.0000   1.0000   1.0000   1.0000   1.0000   1.0000   1.0000
     1.0000   1.0000   1.0000   1.0000   1.0000   1.0000   1.0000   1.0000
     1.0000   1.0000   1.0000   1.0000   1.0000   1.0000   1.0000   1.0000
     1.0000   1.0000   1.0000   1.0000   1.0000   1.0000   1.0000   1.0000
     1.0000   1.0000   1.0000   1.0000   1.0000   1.0000   1.0000   1.0000
     1.0000   1.0000   1.0000   1.0000   1.0000   1.0000   0.0000   0.0000
     0.0000   0.0000

          k = 0.2162 1.1234 0.1874 (  7489 PWs)   bands (ev):

   -39.1521 -39.1521 -39.1520 -39.1520 -39.1466 -39.1466 -39.1466 -39.1466
   -38.9977 -38.9977 -38.9704 -38.9704 -38.2583 -38.2583 -38.2582 -38.2582
   -38.2565 -38.2565 -38.2562 -38.2562 -38.2513 -38.2513 -38.2513 -38.2513
   -38.1056 -38.1056 -38.0944 -38.0944 -38.0702 -38.0702 -15.7248 -15.7248
   -15.7234 -15.7234 -15.7175 -15.7175 -15.7167 -15.7167 -12.7555 -12.7555
   -12.7526 -12.7526 -12.7382 -12.7382 -12.7353 -12.7353 -12.7247 -12.7247
   -12.7210 -12.7210  -4.1662  -4.1662  -3.8733  -3.8733  -3.5246  -3.5246
    -1.6237  -1.6237  -1.2044  -1.2044   3.5649   3.5649   4.8054   4.8054
     4.9838   4.9838   5.3139   5.3139   6.1134   6.1134   6.6150   6.6150
     6.9298   6.9298   7.2479   7.2479   8.0081   8.0081   9.9147   9.9147
    10.9497  10.9497

     occupation numbers 
     1.0000   1.0000   1.0000   1.0000   1.0000   1.0000   1.0000   1.0000
     1.0000   1.0000   1.0000   1.0000   1.0000   1.0000   1.0000   1.0000
     1.0000   1.0000   1.0000   1.0000   1.0000   1.0000   1.0000   1.0000
     1.0000   1.0000   1.0000   1.0000   1.0000   1.0000   1.0000   1.0000
     1.0000   1.0000   1.0000   1.0000   1.0000   1.0000   1.0000   1.0000
     1.0000   1.0000   1.0000   1.0000   1.0000   1.0000   1.0000   1.0000
     1.0000   1.0000   1.0000   1.0000   1.0000   1.0000   1.0000   1.0000
     1.0000   1.0000   1.0000   1.0000   1.0000   1.0000   1.0000   1.0000
     1.0000   1.0000   1.0000   1.0000   1.0000   1.0000   1.0000   1.0000
     1.0000   1.0000   1.0000   1.0000   1.0000   1.0000   0.0000   0.0000
     0.0000   0.0000

          k = 0.2162-1.3731-0.1250 (  7486 PWs)   bands (ev):

   -39.1521 -39.1521 -39.1520 -39.1520 -39.1466 -39.1466 -39.1466 -39.1466
   -38.9977 -38.9977 -38.9704 -38.9704 -38.2583 -38.2583 -38.2582 -38.2582
   -38.2564 -38.2564 -38.2562 -38.2562 -38.2513 -38.2513 -38.2513 -38.2513
   -38.1056 -38.1056 -38.0944 -38.0944 -38.0702 -38.0702 -15.7246 -15.7246
   -15.7232 -15.7232 -15.7173 -15.7173 -15.7167 -15.7167 -12.7560 -12.7560
   -12.7535 -12.7535 -12.7383 -12.7383 -12.7351 -12.7351 -12.7236 -12.7236
   -12.7197 -12.7197  -3.8479  -3.8479  -3.7173  -3.7173  -3.6765  -3.6765
    -1.7390  -1.7390  -1.3880  -1.3880   3.3487   3.3487   4.7918   4.7918
     4.9469   4.9469   5.4068   5.4068   6.1397   6.1397   6.3868   6.3868
     6.6673   6.6673   7.1440   7.1440   7.9715   7.9715   9.9348   9.9348
    11.0241  11.0241

     occupation numbers 
     1.0000   1.0000   1.0000   1.0000   1.0000   1.0000   1.0000   1.0000
     1.0000   1.0000   1.0000   1.0000   1.0000   1.0000   1.0000   1.0000
     1.0000   1.0000   1.0000   1.0000   1.0000   1.0000   1.0000   1.0000
     1.0000   1.0000   1.0000   1.0000   1.0000   1.0000   1.0000   1.0000
     1.0000   1.0000   1.0000   1.0000   1.0000   1.0000   1.0000   1.0000
     1.0000   1.0000   1.0000   1.0000   1.0000   1.0000   1.0000   1.0000
     1.0000   1.0000   1.0000   1.0000   1.0000   1.0000   1.0000   1.0000
     1.0000   1.0000   1.0000   1.0000   1.0000   1.0000   1.0000   1.0000
     1.0000   1.0000   1.0000   1.0000   1.0000   1.0000   1.0000   1.0000
     1.0000   1.0000   1.0000   1.0000   1.0000   1.0000   0.0000   0.0000
     0.0000   0.0000

          k = 0.2162-1.1234-0.0937 (  7487 PWs)   bands (ev):

   -39.1521 -39.1521 -39.1519 -39.1519 -39.1466 -39.1466 -39.1466 -39.1466
   -38.9977 -38.9977 -38.9704 -38.9704 -38.2583 -38.2583 -38.2582 -38.2582
   -38.2565 -38.2565 -38.2562 -38.2562 -38.2513 -38.2513 -38.2513 -38.2513
   -38.1056 -38.1056 -38.0944 -38.0944 -38.0702 -38.0702 -15.7248 -15.7248
   -15.7234 -15.7234 -15.7175 -15.7175 -15.7167 -15.7167 -12.7555 -12.7555
   -12.7526 -12.7526 -12.7382 -12.7382 -12.7353 -12.7353 -12.7247 -12.7247
   -12.7210 -12.7210  -4.1888  -4.1888  -3.8180  -3.8180  -3.5568  -3.5568
    -1.6421  -1.6421  -1.1844  -1.1844   3.5073   3.5073   4.8678   4.8678
     5.0277   5.0277   5.4550   5.4550   5.9551   5.9551   6.6507   6.6507
     6.8054   6.8054   7.2178   7.2178   8.0409   8.0409   9.9108   9.9108
    10.9782  10.9782

     occupation numbers 
     1.0000   1.0000   1.0000   1.0000   1.0000   1.0000   1.0000   1.0000
     1.0000   1.0000   1.0000   1.0000   1.0000   1.0000   1.0000   1.0000
     1.0000   1.0000   1.0000   1.0000   1.0000   1.0000   1.0000   1.0000
     1.0000   1.0000   1.0000   1.0000   1.0000   1.0000   1.0000   1.0000
     1.0000   1.0000   1.0000   1.0000   1.0000   1.0000   1.0000   1.0000
     1.0000   1.0000   1.0000   1.0000   1.0000   1.0000   1.0000   1.0000
     1.0000   1.0000   1.0000   1.0000   1.0000   1.0000   1.0000   1.0000
     1.0000   1.0000   1.0000   1.0000   1.0000   1.0000   1.0000   1.0000
     1.0000   1.0000   1.0000   1.0000   1.0000   1.0000   1.0000   1.0000
     1.0000   1.0000   1.0000   1.0000   1.0000   1.0000   0.0000   0.0000
     0.0000   0.0000

          k = 0.2162-0.8738-0.0625 (  7491 PWs)   bands (ev):

   -39.1521 -39.1521 -39.1519 -39.1519 -39.1467 -39.1467 -39.1466 -39.1466
   -38.9977 -38.9977 -38.9704 -38.9704 -38.2583 -38.2583 -38.2582 -38.2582
   -38.2566 -38.2566 -38.2562 -38.2562 -38.2513 -38.2513 -38.2513 -38.2513
   -38.1056 -38.1056 -38.0944 -38.0944 -38.0702 -38.0702 -15.7255 -15.7255
   -15.7243 -15.7243 -15.7178 -15.7178 -15.7166 -15.7166 -12.7540 -12.7540
   -12.7506 -12.7506 -12.7380 -12.7380 -12.7358 -12.7358 -12.7273 -12.7273
   -12.7242 -12.7242  -4.6483  -4.6483  -4.0392  -4.0392  -3.6506  -3.6506
    -1.2978  -1.2978  -0.8264  -0.8264   4.0206   4.0206   4.9981   4.9981
     5.1859   5.1859   5.6059   5.6059   5.9568   5.9568   6.8646   6.8646
     7.2868   7.2868   7.5522   7.5522   8.1778   8.1778   9.8428   9.8428
    10.6317  10.6317

     occupation numbers 
     1.0000   1.0000   1.0000   1.0000   1.0000   1.0000   1.0000   1.0000
     1.0000   1.0000   1.0000   1.0000   1.0000   1.0000   1.0000   1.0000
     1.0000   1.0000   1.0000   1.0000   1.0000   1.0000   1.0000   1.0000
     1.0000   1.0000   1.0000   1.0000   1.0000   1.0000   1.0000   1.0000
     1.0000   1.0000   1.0000   1.0000   1.0000   1.0000   1.0000   1.0000
     1.0000   1.0000   1.0000   1.0000   1.0000   1.0000   1.0000   1.0000
     1.0000   1.0000   1.0000   1.0000   1.0000   1.0000   1.0000   1.0000
     1.0000   1.0000   1.0000   1.0000   1.0000   1.0000   1.0000   1.0000
     1.0000   1.0000   1.0000   1.0000   1.0000   1.0000   1.0000   1.0000
     1.0000   1.0000   1.0000   1.0000   1.0000   1.0000   0.0000   0.0000
     0.0000   0.0000

          k = 0.2162-0.6241-0.0312 (  7503 PWs)   bands (ev):

   -39.1522 -39.1522 -39.1519 -39.1519 -39.1467 -39.1467 -39.1466 -39.1466
   -38.9977 -38.9977 -38.9704 -38.9704 -38.2584 -38.2584 -38.2582 -38.2582
   -38.2566 -38.2566 -38.2561 -38.2561 -38.2514 -38.2514 -38.2514 -38.2514
   -38.1056 -38.1056 -38.0944 -38.0944 -38.0702 -38.0702 -15.7266 -15.7266
   -15.7258 -15.7258 -15.7181 -15.7181 -15.7164 -15.7164 -12.7528 -12.7528
   -12.7495 -12.7495 -12.7372 -12.7372 -12.7361 -12.7361 -12.7303 -12.7303
   -12.7275 -12.7275  -5.0434  -5.0434  -4.3128  -4.3128  -3.8185  -3.8185
    -0.9629  -0.9629  -0.4483  -0.4483   4.7730   4.7730   5.2128   5.2128
     5.4212   5.4212   6.0305   6.0305   6.2803   6.2803   6.8813   6.8813
     7.8089   7.8089   7.9520   7.9520   8.3432   8.3432   9.6764   9.6764
    10.0679  10.0679

     occupation numbers 
     1.0000   1.0000   1.0000   1.0000   1.0000   1.0000   1.0000   1.0000
     1.0000   1.0000   1.0000   1.0000   1.0000   1.0000   1.0000   1.0000
     1.0000   1.0000   1.0000   1.0000   1.0000   1.0000   1.0000   1.0000
     1.0000   1.0000   1.0000   1.0000   1.0000   1.0000   1.0000   1.0000
     1.0000   1.0000   1.0000   1.0000   1.0000   1.0000   1.0000   1.0000
     1.0000   1.0000   1.0000   1.0000   1.0000   1.0000   1.0000   1.0000
     1.0000   1.0000   1.0000   1.0000   1.0000   1.0000   1.0000   1.0000
     1.0000   1.0000   1.0000   1.0000   1.0000   1.0000   1.0000   1.0000
     1.0000   1.0000   1.0000   1.0000   1.0000   1.0000   1.0000   1.0000
     1.0000   1.0000   1.0000   1.0000   1.0000   1.0000   0.0000   0.0000
     0.0000   0.0000

          k = 0.2162-0.3745-0.0000 (  7515 PWs)   bands (ev):

   -39.1522 -39.1522 -39.1519 -39.1519 -39.1468 -39.1468 -39.1466 -39.1466
   -38.9977 -38.9977 -38.9705 -38.9705 -38.2584 -38.2584 -38.2582 -38.2582
   -38.2567 -38.2567 -38.2561 -38.2561 -38.2514 -38.2514 -38.2514 -38.2514
   -38.1056 -38.1056 -38.0944 -38.0944 -38.0703 -38.0703 -15.7276 -15.7276
   -15.7273 -15.7273 -15.7182 -15.7182 -15.7161 -15.7161 -12.7529 -12.7529
   -12.7506 -12.7506 -12.7358 -12.7358 -12.7355 -12.7355 -12.7322 -12.7322
   -12.7297 -12.7297  -5.3232  -5.3232  -4.5408  -4.5408  -3.9618  -3.9618
    -0.7768  -0.7768  -0.1286  -0.1286   5.4027   5.4027   5.5936   5.5936
     5.9871   5.9871   6.5754   6.5754   6.8333   6.8333   6.9089   6.9089
     7.8433   7.8433   8.1275   8.1275   8.2830   8.2830   9.5322   9.5322
     9.7777   9.7777

     occupation numbers 
     1.0000   1.0000   1.0000   1.0000   1.0000   1.0000   1.0000   1.0000
     1.0000   1.0000   1.0000   1.0000   1.0000   1.0000   1.0000   1.0000
     1.0000   1.0000   1.0000   1.0000   1.0000   1.0000   1.0000   1.0000
     1.0000   1.0000   1.0000   1.0000   1.0000   1.0000   1.0000   1.0000
     1.0000   1.0000   1.0000   1.0000   1.0000   1.0000   1.0000   1.0000
     1.0000   1.0000   1.0000   1.0000   1.0000   1.0000   1.0000   1.0000
     1.0000   1.0000   1.0000   1.0000   1.0000   1.0000   1.0000   1.0000
     1.0000   1.0000   1.0000   1.0000   1.0000   1.0000   1.0000   1.0000
     1.0000   1.0000   1.0000   1.0000   1.0000   1.0000   1.0000   1.0000
     1.0000   1.0000   1.0000   1.0000   1.0000   1.0000   0.0000   0.0000
     0.0000   0.0000

          k = 0.4324 0.2496 0.1250 (  7504 PWs)   bands (ev):

   -39.1522 -39.1522 -39.1518 -39.1518 -39.1468 -39.1468 -39.1466 -39.1466
   -38.9977 -38.9977 -38.9705 -38.9705 -38.2584 -38.2584 -38.2581 -38.2581
   -38.2567 -38.2567 -38.2561 -38.2561 -38.2514 -38.2514 -38.2514 -38.2514
   -38.1056 -38.1056 -38.0944 -38.0944 -38.0703 -38.0703 -15.7271 -15.7271
   -15.7270 -15.7270 -15.7181 -15.7181 -15.7162 -15.7162 -12.7527 -12.7527
   -12.7503 -12.7503 -12.7364 -12.7364 -12.7356 -12.7356 -12.7317 -12.7317
   -12.7290 -12.7290  -5.2387  -5.2387  -4.5349  -4.5349  -3.8739  -3.8739
    -0.8506  -0.8506  -0.1946  -0.1946   5.1030   5.1030   5.5960   5.5960
     5.8225   5.8225   6.3533   6.3533   6.8562   6.8562   7.2350   7.2350
     7.4557   7.4557   7.9013   7.9013   8.1694   8.1694   9.8003   9.8003
     9.9447   9.9447

     occupation numbers 
     1.0000   1.0000   1.0000   1.0000   1.0000   1.0000   1.0000   1.0000
     1.0000   1.0000   1.0000   1.0000   1.0000   1.0000   1.0000   1.0000
     1.0000   1.0000   1.0000   1.0000   1.0000   1.0000   1.0000   1.0000
     1.0000   1.0000   1.0000   1.0000   1.0000   1.0000   1.0000   1.0000
     1.0000   1.0000   1.0000   1.0000   1.0000   1.0000   1.0000   1.0000
     1.0000   1.0000   1.0000   1.0000   1.0000   1.0000   1.0000   1.0000
     1.0000   1.0000   1.0000   1.0000   1.0000   1.0000   1.0000   1.0000
     1.0000   1.0000   1.0000   1.0000   1.0000   1.0000   1.0000   1.0000
     1.0000   1.0000   1.0000   1.0000   1.0000   1.0000   1.0000   1.0000
     1.0000   1.0000   1.0000   1.0000   1.0000   1.0000   0.0000   0.0000
     0.0000   0.0000

          k = 0.4324 0.4993 0.1562 (  7496 PWs)   bands (ev):

   -39.1522 -39.1522 -39.1519 -39.1519 -39.1467 -39.1467 -39.1466 -39.1466
   -38.9977 -38.9977 -38.9704 -38.9704 -38.2584 -38.2584 -38.2582 -38.2582
   -38.2566 -38.2566 -38.2561 -38.2561 -38.2514 -38.2514 -38.2513 -38.2513
   -38.1056 -38.1056 -38.0944 -38.0944 -38.0702 -38.0702 -15.7265 -15.7265
   -15.7257 -15.7257 -15.7180 -15.7180 -15.7164 -15.7164 -12.7527 -12.7527
   -12.7495 -12.7495 -12.7372 -12.7372 -12.7361 -12.7361 -12.7302 -12.7302
   -12.7276 -12.7276  -5.0240  -5.0240  -4.3851  -4.3851  -3.7552  -3.7552
    -0.9773  -0.9773  -0.4489  -0.4489   4.6267   4.6267   5.2803   5.2803
     5.5615   5.5615   6.2096   6.2096   6.3672   6.3672   6.6814   6.6814
     7.5359   7.5359   8.0425   8.0425   8.1983   8.1983   9.8027   9.8027
    10.1072  10.1072

     occupation numbers 
     1.0000   1.0000   1.0000   1.0000   1.0000   1.0000   1.0000   1.0000
     1.0000   1.0000   1.0000   1.0000   1.0000   1.0000   1.0000   1.0000
     1.0000   1.0000   1.0000   1.0000   1.0000   1.0000   1.0000   1.0000
     1.0000   1.0000   1.0000   1.0000   1.0000   1.0000   1.0000   1.0000
     1.0000   1.0000   1.0000   1.0000   1.0000   1.0000   1.0000   1.0000
     1.0000   1.0000   1.0000   1.0000   1.0000   1.0000   1.0000   1.0000
     1.0000   1.0000   1.0000   1.0000   1.0000   1.0000   1.0000   1.0000
     1.0000   1.0000   1.0000   1.0000   1.0000   1.0000   1.0000   1.0000
     1.0000   1.0000   1.0000   1.0000   1.0000   1.0000   1.0000   1.0000
     1.0000   1.0000   1.0000   1.0000   1.0000   1.0000   0.0000   0.0000
     0.0000   0.0000

          k = 0.4324 0.7489 0.1874 (  7499 PWs)   bands (ev):

   -39.1522 -39.1522 -39.1519 -39.1519 -39.1467 -39.1467 -39.1466 -39.1466
   -38.9977 -38.9977 -38.9704 -38.9704 -38.2584 -38.2584 -38.2582 -38.2582
   -38.2566 -38.2566 -38.2561 -38.2561 -38.2514 -38.2514 -38.2513 -38.2513
   -38.1056 -38.1056 -38.0944 -38.0944 -38.0702 -38.0702 -15.7259 -15.7259
   -15.7242 -15.7242 -15.7180 -15.7180 -15.7167 -15.7167 -12.7533 -12.7533
   -12.7492 -12.7492 -12.7376 -12.7376 -12.7366 -12.7366 -12.7280 -12.7280
   -12.7259 -12.7259  -4.6865  -4.6865  -4.1550  -4.1550  -3.6041  -3.6041
    -1.2030  -1.2030  -0.8237  -0.8237   4.2791   4.2791   4.7893   4.7893
     5.1141   5.1141   5.7060   5.7060   6.2054   6.2054   6.4014   6.4014
     7.3308   7.3308   8.0813   8.0813   8.1231   8.1231   9.9853   9.9853
    10.2464  10.2464

     occupation numbers 
     1.0000   1.0000   1.0000   1.0000   1.0000   1.0000   1.0000   1.0000
     1.0000   1.0000   1.0000   1.0000   1.0000   1.0000   1.0000   1.0000
     1.0000   1.0000   1.0000   1.0000   1.0000   1.0000   1.0000   1.0000
     1.0000   1.0000   1.0000   1.0000   1.0000   1.0000   1.0000   1.0000
     1.0000   1.0000   1.0000   1.0000   1.0000   1.0000   1.0000   1.0000
     1.0000   1.0000   1.0000   1.0000   1.0000   1.0000   1.0000   1.0000
     1.0000   1.0000   1.0000   1.0000   1.0000   1.0000   1.0000   1.0000
     1.0000   1.0000   1.0000   1.0000   1.0000   1.0000   1.0000   1.0000
     1.0000   1.0000   1.0000   1.0000   1.0000   1.0000   1.0000   1.0000
     1.0000   1.0000   1.0000   1.0000   1.0000   1.0000   0.0000   0.0000
     0.0000   0.0000

          k = 0.4324 0.9986 0.2187 (  7502 PWs)   bands (ev):

   -39.1521 -39.1521 -39.1520 -39.1520 -39.1467 -39.1467 -39.1466 -39.1466
   -38.9977 -38.9977 -38.9704 -38.9704 -38.2583 -38.2583 -38.2582 -38.2582
   -38.2565 -38.2565 -38.2562 -38.2562 -38.2513 -38.2513 -38.2513 -38.2513
   -38.1056 -38.1056 -38.0944 -38.0944 -38.0702 -38.0702 -15.7251 -15.7251
   -15.7228 -15.7228 -15.7180 -15.7180 -15.7169 -15.7169 -12.7537 -12.7537
   -12.7498 -12.7498 -12.7384 -12.7384 -12.7365 -12.7365 -12.7259 -12.7259
   -12.7238 -12.7238  -4.2629  -4.2629  -3.9033  -3.9033  -3.4876  -3.4876
    -1.4988  -1.4988  -1.2264  -1.2264   3.9267   3.9267   4.3853   4.3853
     4.9057   4.9057   5.2262   5.2262   6.1307   6.1307   6.5083   6.5083
     7.1136   7.1136   7.5459   7.5459   7.8367   7.8367  10.3251  10.3251
    10.6980  10.6980

     occupation numbers 
     1.0000   1.0000   1.0000   1.0000   1.0000   1.0000   1.0000   1.0000
     1.0000   1.0000   1.0000   1.0000   1.0000   1.0000   1.0000   1.0000
     1.0000   1.0000   1.0000   1.0000   1.0000   1.0000   1.0000   1.0000
     1.0000   1.0000   1.0000   1.0000   1.0000   1.0000   1.0000   1.0000
     1.0000   1.0000   1.0000   1.0000   1.0000   1.0000   1.0000   1.0000
     1.0000   1.0000   1.0000   1.0000   1.0000   1.0000   1.0000   1.0000
     1.0000   1.0000   1.0000   1.0000   1.0000   1.0000   1.0000   1.0000
     1.0000   1.0000   1.0000   1.0000   1.0000   1.0000   1.0000   1.0000
     1.0000   1.0000   1.0000   1.0000   1.0000   1.0000   1.0000   1.0000
     1.0000   1.0000   1.0000   1.0000   1.0000   1.0000   0.0000   0.0000
     0.0000   0.0000

          k = 0.4324-1.4979-0.0937 (  7499 PWs)   bands (ev):

   -39.1521 -39.1521 -39.1520 -39.1520 -39.1466 -39.1466 -39.1466 -39.1466
   -38.9977 -38.9977 -38.9704 -38.9704 -38.2583 -38.2583 -38.2583 -38.2583
   -38.2564 -38.2564 -38.2563 -38.2563 -38.2513 -38.2513 -38.2513 -38.2513
   -38.1056 -38.1056 -38.0944 -38.0944 -38.0702 -38.0702 -15.7246 -15.7246
   -15.7221 -15.7221 -15.7180 -15.7180 -15.7170 -15.7170 -12.7535 -12.7535
   -12.7508 -12.7508 -12.7391 -12.7391 -12.7361 -12.7361 -12.7248 -12.7248
   -12.7221 -12.7221  -3.8483  -3.8483  -3.7138  -3.7138  -3.5260  -3.5260
    -1.7339  -1.7339  -1.5065  -1.5065   3.5648   3.5648   4.3988   4.3988
     4.6409   4.6409   5.2494   5.2494   6.0943   6.0943   6.5851   6.5851
     6.8589   6.8589   7.1565   7.1565   7.5729   7.5729  10.5895  10.5895
    10.9701  10.9701

     occupation numbers 
     1.0000   1.0000   1.0000   1.0000   1.0000   1.0000   1.0000   1.0000
     1.0000   1.0000   1.0000   1.0000   1.0000   1.0000   1.0000   1.0000
     1.0000   1.0000   1.0000   1.0000   1.0000   1.0000   1.0000   1.0000
     1.0000   1.0000   1.0000   1.0000   1.0000   1.0000   1.0000   1.0000
     1.0000   1.0000   1.0000   1.0000   1.0000   1.0000   1.0000   1.0000
     1.0000   1.0000   1.0000   1.0000   1.0000   1.0000   1.0000   1.0000
     1.0000   1.0000   1.0000   1.0000   1.0000   1.0000   1.0000   1.0000
     1.0000   1.0000   1.0000   1.0000   1.0000   1.0000   1.0000   1.0000
     1.0000   1.0000   1.0000   1.0000   1.0000   1.0000   1.0000   1.0000
     1.0000   1.0000   1.0000   1.0000   1.0000   1.0000   0.0000   0.0000
     0.0000   0.0000

          k = 0.4324-1.2482-0.0625 (  7495 PWs)   bands (ev):

   -39.1521 -39.1521 -39.1520 -39.1520 -39.1466 -39.1466 -39.1466 -39.1466
   -38.9977 -38.9977 -38.9704 -38.9704 -38.2583 -38.2583 -38.2582 -38.2582
   -38.2564 -38.2564 -38.2563 -38.2563 -38.2513 -38.2513 -38.2513 -38.2513
   -38.1056 -38.1056 -38.0944 -38.0944 -38.0702 -38.0702 -15.7246 -15.7246
   -15.7221 -15.7221 -15.7179 -15.7179 -15.7169 -15.7169 -12.7535 -12.7535
   -12.7508 -12.7508 -12.7390 -12.7390 -12.7361 -12.7361 -12.7248 -12.7248
   -12.7221 -12.7221  -3.8808  -3.8808  -3.6488  -3.6488  -3.5553  -3.5553
    -1.7546  -1.7546  -1.4891  -1.4891   3.5086   3.5086   4.4042   4.4042
     4.7045   4.7045   5.4602   5.4602   6.1135   6.1135   6.2703   6.2703
     6.6342   6.6342   7.3500   7.3500   7.6717   7.6717  10.5845  10.5845
    10.8594  10.8594

     occupation numbers 
     1.0000   1.0000   1.0000   1.0000   1.0000   1.0000   1.0000   1.0000
     1.0000   1.0000   1.0000   1.0000   1.0000   1.0000   1.0000   1.0000
     1.0000   1.0000   1.0000   1.0000   1.0000   1.0000   1.0000   1.0000
     1.0000   1.0000   1.0000   1.0000   1.0000   1.0000   1.0000   1.0000
     1.0000   1.0000   1.0000   1.0000   1.0000   1.0000   1.0000   1.0000
     1.0000   1.0000   1.0000   1.0000   1.0000   1.0000   1.0000   1.0000
     1.0000   1.0000   1.0000   1.0000   1.0000   1.0000   1.0000   1.0000
     1.0000   1.0000   1.0000   1.0000   1.0000   1.0000   1.0000   1.0000
     1.0000   1.0000   1.0000   1.0000   1.0000   1.0000   1.0000   1.0000
     1.0000   1.0000   1.0000   1.0000   1.0000   1.0000   0.0000   0.0000
     0.0000   0.0000

          k = 0.4324-0.9986-0.0312 (  7497 PWs)   bands (ev):

   -39.1521 -39.1521 -39.1519 -39.1519 -39.1467 -39.1467 -39.1466 -39.1466
   -38.9977 -38.9977 -38.9704 -38.9704 -38.2583 -38.2583 -38.2582 -38.2582
   -38.2565 -38.2565 -38.2562 -38.2562 -38.2513 -38.2513 -38.2513 -38.2513
   -38.1056 -38.1056 -38.0944 -38.0944 -38.0702 -38.0702 -15.7251 -15.7251
   -15.7228 -15.7228 -15.7179 -15.7179 -15.7169 -15.7169 -12.7537 -12.7537
   -12.7498 -12.7498 -12.7383 -12.7383 -12.7365 -12.7365 -12.7258 -12.7258
   -12.7238 -12.7238  -4.2989  -4.2989  -3.7885  -3.7885  -3.5717  -3.5717
    -1.4848  -1.4848  -1.2366  -1.2366   3.8090   3.8090   4.4311   4.4311
     5.0861   5.0861   5.5471   5.5471   5.9193   5.9193   6.1209   6.1209
     7.0325   7.0325   7.6283   7.6283   8.0162   8.0162  10.3246  10.3246
    10.5502  10.5502

     occupation numbers 
     1.0000   1.0000   1.0000   1.0000   1.0000   1.0000   1.0000   1.0000
     1.0000   1.0000   1.0000   1.0000   1.0000   1.0000   1.0000   1.0000
     1.0000   1.0000   1.0000   1.0000   1.0000   1.0000   1.0000   1.0000
     1.0000   1.0000   1.0000   1.0000   1.0000   1.0000   1.0000   1.0000
     1.0000   1.0000   1.0000   1.0000   1.0000   1.0000   1.0000   1.0000
     1.0000   1.0000   1.0000   1.0000   1.0000   1.0000   1.0000   1.0000
     1.0000   1.0000   1.0000   1.0000   1.0000   1.0000   1.0000   1.0000
     1.0000   1.0000   1.0000   1.0000   1.0000   1.0000   1.0000   1.0000
     1.0000   1.0000   1.0000   1.0000   1.0000   1.0000   1.0000   1.0000
     1.0000   1.0000   1.0000   1.0000   1.0000   1.0000   0.0000   0.0000
     0.0000   0.0000

          k = 0.4324-0.7489 0.0000 (  7502 PWs)   bands (ev):

   -39.1521 -39.1521 -39.1519 -39.1519 -39.1467 -39.1467 -39.1466 -39.1466
   -38.9977 -38.9977 -38.9704 -38.9704 -38.2584 -38.2584 -38.2582 -38.2582
   -38.2566 -38.2566 -38.2562 -38.2562 -38.2513 -38.2513 -38.2513 -38.2513
   -38.1056 -38.1056 -38.0944 -38.0944 -38.0702 -38.0702 -15.7258 -15.7258
   -15.7241 -15.7241 -15.7180 -15.7180 -15.7167 -15.7167 -12.7534 -12.7534
   -12.7491 -12.7491 -12.7375 -12.7375 -12.7367 -12.7367 -12.7279 -12.7279
   -12.7259 -12.7259  -4.7150  -4.7150  -4.0504  -4.0504  -3.6918  -3.6918
    -1.1669  -1.1669  -0.8492  -0.8492   4.3211   4.3211   4.7513   4.7513
     5.2380   5.2380   5.6505   5.6505   6.1340   6.1340   6.2068   6.2068
     7.5689   7.5689   8.0317   8.0317   8.2276   8.2276   9.9256   9.9256
    10.1842  10.1842

     occupation numbers 
     1.0000   1.0000   1.0000   1.0000   1.0000   1.0000   1.0000   1.0000
     1.0000   1.0000   1.0000   1.0000   1.0000   1.0000   1.0000   1.0000
     1.0000   1.0000   1.0000   1.0000   1.0000   1.0000   1.0000   1.0000
     1.0000   1.0000   1.0000   1.0000   1.0000   1.0000   1.0000   1.0000
     1.0000   1.0000   1.0000   1.0000   1.0000   1.0000   1.0000   1.0000
     1.0000   1.0000   1.0000   1.0000   1.0000   1.0000   1.0000   1.0000
     1.0000   1.0000   1.0000   1.0000   1.0000   1.0000   1.0000   1.0000
     1.0000   1.0000   1.0000   1.0000   1.0000   1.0000   1.0000   1.0000
     1.0000   1.0000   1.0000   1.0000   1.0000   1.0000   1.0000   1.0000
     1.0000   1.0000   1.0000   1.0000   1.0000   1.0000   0.0000   0.0000
     0.0000   0.0000

          k = 0.6486 0.3745 0.1874 (  7497 PWs)   bands (ev):

   -39.1522 -39.1522 -39.1519 -39.1519 -39.1467 -39.1467 -39.1466 -39.1466
   -38.9977 -38.9977 -38.9704 -38.9704 -38.2584 -38.2584 -38.2582 -38.2582
   -38.2566 -38.2566 -38.2561 -38.2561 -38.2513 -38.2513 -38.2513 -38.2513
[...]
    10.4728  10.4728

     occupation numbers 
     1.0000   1.0000   1.0000   1.0000   1.0000   1.0000   1.0000   1.0000
     1.0000   1.0000   1.0000   1.0000   1.0000   1.0000   1.0000   1.0000
     1.0000   1.0000   1.0000   1.0000   1.0000   1.0000   1.0000   1.0000
     1.0000   1.0000   1.0000   1.0000   1.0000   1.0000   1.0000   1.0000
     1.0000   1.0000   1.0000   1.0000   1.0000   1.0000   1.0000   1.0000
     1.0000   1.0000   1.0000   1.0000   1.0000   1.0000   1.0000   1.0000
     1.0000   1.0000   1.0000   1.0000   1.0000   1.0000   1.0000   1.0000
     1.0000   1.0000   1.0000   1.0000   1.0000   1.0000   1.0000   1.0000
     1.0000   1.0000   1.0000   1.0000   1.0000   1.0000   1.0000   1.0000
     1.0000   1.0000   1.0000   1.0000   1.0000   1.0000   0.0000   0.0000
     0.0000   0.0000

          k =-0.0000-1.9972 0.1250 (  7506 PWs)   bands (ev):

   -39.1522 -39.1522 -39.1519 -39.1519 -39.1467 -39.1467 -39.1466 -39.1466
   -38.9978 -38.9978 -38.9704 -38.9704 -38.2584 -38.2584 -38.2582 -38.2582
   -38.2566 -38.2566 -38.2561 -38.2561 -38.2514 -38.2514 -38.2513 -38.2513
   -38.1057 -38.1057 -38.0944 -38.0944 -38.0702 -38.0702 -15.7259 -15.7259
   -15.7256 -15.7256 -15.7180 -15.7180 -15.7166 -15.7166 -12.7532 -12.7532
   -12.7504 -12.7504 -12.7378 -12.7378 -12.7359 -12.7359 -12.7291 -12.7291
   -12.7258 -12.7258  -4.7572  -4.7572  -4.5562  -4.5562  -3.5116  -3.5116
    -1.2188  -1.2188  -0.5022  -0.5022   4.2896   4.2896   5.1081   5.1081
     5.6052   5.6052   6.0415   6.0415   6.3176   6.3176   6.6403   6.6403
     7.4935   7.4935   7.6550   7.6550   8.4208   8.4208   9.4115   9.4115
    10.7367  10.7367

     occupation numbers 
     1.0000   1.0000   1.0000   1.0000   1.0000   1.0000   1.0000   1.0000
     1.0000   1.0000   1.0000   1.0000   1.0000   1.0000   1.0000   1.0000
     1.0000   1.0000   1.0000   1.0000   1.0000   1.0000   1.0000   1.0000
     1.0000   1.0000   1.0000   1.0000   1.0000   1.0000   1.0000   1.0000
     1.0000   1.0000   1.0000   1.0000   1.0000   1.0000   1.0000   1.0000
     1.0000   1.0000   1.0000   1.0000   1.0000   1.0000   1.0000   1.0000
     1.0000   1.0000   1.0000   1.0000   1.0000   1.0000   1.0000   1.0000
     1.0000   1.0000   1.0000   1.0000   1.0000   1.0000   1.0000   1.0000
     1.0000   1.0000   1.0000   1.0000   1.0000   1.0000   1.0000   1.0000
     1.0000   1.0000   1.0000   1.0000   1.0000   1.0000   0.0000   0.0000
     0.0000   0.0000

          k = 0.2162 0.1248 0.4373 (  7533 PWs)   bands (ev):

   -39.1523 -39.1523 -39.1519 -39.1519 -39.1468 -39.1468 -39.1466 -39.1466
   -38.9978 -38.9978 -38.9705 -38.9705 -38.2584 -38.2584 -38.2582 -38.2582
   -38.2567 -38.2567 -38.2561 -38.2561 -38.2515 -38.2515 -38.2514 -38.2514
   -38.1057 -38.1057 -38.0944 -38.0944 -38.0703 -38.0703 -15.7285 -15.7285
   -15.7281 -15.7281 -15.7180 -15.7180 -15.7164 -15.7164 -12.7540 -12.7540
   -12.7518 -12.7518 -12.7351 -12.7351 -12.7343 -12.7343 -12.7323 -12.7323
   -12.7312 -12.7312  -5.3163  -5.3163  -5.0342  -5.0342  -3.7165  -3.7165
    -1.0997  -1.0997   0.3678   0.3678   5.8208   5.8208   6.0012   6.0012
     6.5318   6.5318   6.7664   6.7664   7.0025   7.0025   7.1068   7.1068
     7.6841   7.6841   8.1682   8.1682   8.5649   8.5649   9.0652   9.0652
     9.7231   9.7231

     occupation numbers 
     1.0000   1.0000   1.0000   1.0000   1.0000   1.0000   1.0000   1.0000
     1.0000   1.0000   1.0000   1.0000   1.0000   1.0000   1.0000   1.0000
     1.0000   1.0000   1.0000   1.0000   1.0000   1.0000   1.0000   1.0000
     1.0000   1.0000   1.0000   1.0000   1.0000   1.0000   1.0000   1.0000
     1.0000   1.0000   1.0000   1.0000   1.0000   1.0000   1.0000   1.0000
     1.0000   1.0000   1.0000   1.0000   1.0000   1.0000   1.0000   1.0000
     1.0000   1.0000   1.0000   1.0000   1.0000   1.0000   1.0000   1.0000
     1.0000   1.0000   1.0000   1.0000   1.0000   1.0000   1.0000   1.0000
     1.0000   1.0000   1.0000   1.0000   1.0000   1.0000   1.0000   1.0000
     1.0000   1.0000   1.0000   1.0000   1.0000   1.0000   0.0000   0.0000
     0.0000   0.0000

          k = 0.2162-2.3717 0.1250 (  7516 PWs)   bands (ev):

   -39.1522 -39.1522 -39.1519 -39.1519 -39.1468 -39.1468 -39.1466 -39.1466
   -38.9978 -38.9978 -38.9705 -38.9705 -38.2584 -38.2584 -38.2582 -38.2582
   -38.2567 -38.2567 -38.2561 -38.2561 -38.2514 -38.2514 -38.2514 -38.2514
   -38.1057 -38.1057 -38.0944 -38.0944 -38.0703 -38.0703 -15.7276 -15.7276
   -15.7272 -15.7272 -15.7181 -15.7181 -15.7164 -15.7164 -12.7529 -12.7529
   -12.7505 -12.7505 -12.7357 -12.7357 -12.7355 -12.7355 -12.7320 -12.7320
   -12.7300 -12.7300  -5.1634  -5.1634  -4.9193  -4.9193  -3.6442  -3.6442
    -1.1178  -1.1178   0.1260   0.1260   5.3001   5.3001   5.7322   5.7322
     5.9025   5.9025   6.6562   6.6562   7.0329   7.0329   7.1795   7.1795
     7.2941   7.2941   7.9907   7.9907   8.2044   8.2044   9.6148   9.6148
    10.0151  10.0151

     occupation numbers 
     1.0000   1.0000   1.0000   1.0000   1.0000   1.0000   1.0000   1.0000
     1.0000   1.0000   1.0000   1.0000   1.0000   1.0000   1.0000   1.0000
     1.0000   1.0000   1.0000   1.0000   1.0000   1.0000   1.0000   1.0000
     1.0000   1.0000   1.0000   1.0000   1.0000   1.0000   1.0000   1.0000
     1.0000   1.0000   1.0000   1.0000   1.0000   1.0000   1.0000   1.0000
     1.0000   1.0000   1.0000   1.0000   1.0000   1.0000   1.0000   1.0000
     1.0000   1.0000   1.0000   1.0000   1.0000   1.0000   1.0000   1.0000
     1.0000   1.0000   1.0000   1.0000   1.0000   1.0000   1.0000   1.0000
     1.0000   1.0000   1.0000   1.0000   1.0000   1.0000   1.0000   1.0000
     1.0000   1.0000   1.0000   1.0000   1.0000   1.0000   0.0000   0.0000
     0.0000   0.0000

          k = 0.2162-2.1220 0.1562 (  7506 PWs)   bands (ev):

   -39.1522 -39.1522 -39.1519 -39.1519 -39.1467 -39.1467 -39.1466 -39.1466
   -38.9977 -38.9977 -38.9704 -38.9704 -38.2584 -38.2584 -38.2582 -38.2582
   -38.2566 -38.2566 -38.2561 -38.2561 -38.2514 -38.2514 -38.2513 -38.2513
   -38.1057 -38.1057 -38.0944 -38.0944 -38.0702 -38.0702 -15.7265 -15.7265
   -15.7258 -15.7258 -15.7181 -15.7181 -15.7165 -15.7165 -12.7527 -12.7527
   -12.7495 -12.7495 -12.7373 -12.7373 -12.7361 -12.7361 -12.7303 -12.7303
   -12.7277 -12.7277  -4.8839  -4.8839  -4.6775  -4.6775  -3.5418  -3.5418
    -1.1703  -1.1703  -0.3158  -0.3158   4.5604   4.5604   5.1798   5.1798
     5.6389   5.6389   6.2448   6.2448   6.7008   6.7008   7.0421   7.0421
     7.1601   7.1601   7.5343   7.5343   8.1772   8.1772   9.8257   9.8257
    10.5863  10.5863

     occupation numbers 
     1.0000   1.0000   1.0000   1.0000   1.0000   1.0000   1.0000   1.0000
     1.0000   1.0000   1.0000   1.0000   1.0000   1.0000   1.0000   1.0000
     1.0000   1.0000   1.0000   1.0000   1.0000   1.0000   1.0000   1.0000
     1.0000   1.0000   1.0000   1.0000   1.0000   1.0000   1.0000   1.0000
     1.0000   1.0000   1.0000   1.0000   1.0000   1.0000   1.0000   1.0000
     1.0000   1.0000   1.0000   1.0000   1.0000   1.0000   1.0000   1.0000
     1.0000   1.0000   1.0000   1.0000   1.0000   1.0000   1.0000   1.0000
     1.0000   1.0000   1.0000   1.0000   1.0000   1.0000   1.0000   1.0000
     1.0000   1.0000   1.0000   1.0000   1.0000   1.0000   1.0000   1.0000
     1.0000   1.0000   1.0000   1.0000   1.0000   1.0000   0.0000   0.0000
     0.0000   0.0000

          k =-1.9458-1.1234-0.1874 (  7499 PWs)   bands (ev):

   -39.1522 -39.1522 -39.1519 -39.1519 -39.1467 -39.1467 -39.1466 -39.1466
   -38.9977 -38.9977 -38.9704 -38.9704 -38.2584 -38.2584 -38.2582 -38.2582
   -38.2566 -38.2566 -38.2561 -38.2561 -38.2514 -38.2514 -38.2513 -38.2513
   -38.1057 -38.1057 -38.0944 -38.0944 -38.0702 -38.0702 -15.7272 -15.7272
   -15.7268 -15.7268 -15.7180 -15.7180 -15.7164 -15.7164 -12.7527 -12.7527
   -12.7501 -12.7501 -12.7364 -12.7364 -12.7355 -12.7355 -12.7316 -12.7316
   -12.7292 -12.7292  -5.0880  -5.0880  -4.8633  -4.8633  -3.6131  -3.6131
    -1.1278  -1.1278   0.0070   0.0070   4.9720   4.9720   5.7584   5.7584
     5.9617   5.9617   6.4465   6.4465   6.6715   6.6715   7.0085   7.0085
     7.5648   7.5648   7.6985   7.6985   8.5641   8.5641   9.2581   9.2581
    10.4528  10.4528

     occupation numbers 
     1.0000   1.0000   1.0000   1.0000   1.0000   1.0000   1.0000   1.0000
     1.0000   1.0000   1.0000   1.0000   1.0000   1.0000   1.0000   1.0000
     1.0000   1.0000   1.0000   1.0000   1.0000   1.0000   1.0000   1.0000
     1.0000   1.0000   1.0000   1.0000   1.0000   1.0000   1.0000   1.0000
     1.0000   1.0000   1.0000   1.0000   1.0000   1.0000   1.0000   1.0000
     1.0000   1.0000   1.0000   1.0000   1.0000   1.0000   1.0000   1.0000
     1.0000   1.0000   1.0000   1.0000   1.0000   1.0000   1.0000   1.0000
     1.0000   1.0000   1.0000   1.0000   1.0000   1.0000   1.0000   1.0000
     1.0000   1.0000   1.0000   1.0000   1.0000   1.0000   1.0000   1.0000
     1.0000   1.0000   1.0000   1.0000   1.0000   1.0000   0.0000   0.0000
     0.0000   0.0000

          k =-0.0000-0.0000 0.4686 (  7535 PWs)   bands (ev):

   -39.1522 -39.1522 -39.1519 -39.1519 -39.1468 -39.1468 -39.1467 -39.1467
   -38.9978 -38.9978 -38.9705 -38.9705 -38.2584 -38.2584 -38.2582 -38.2582
   -38.2567 -38.2567 -38.2561 -38.2561 -38.2515 -38.2515 -38.2514 -38.2514
   -38.1057 -38.1057 -38.0945 -38.0945 -38.0703 -38.0703 -15.7290 -15.7290
   -15.7285 -15.7285 -15.7178 -15.7178 -15.7164 -15.7164 -12.7548 -12.7548
   -12.7526 -12.7526 -12.7350 -12.7350 -12.7334 -12.7334 -12.7321 -12.7321
   -12.7319 -12.7319  -5.3766  -5.3766  -5.1192  -5.1192  -3.7399  -3.7399
    -1.1164  -1.1164   0.5137   0.5137   5.7962   5.7962   6.6758   6.6758
     6.7240   6.7240   7.1427   7.1427   7.2014   7.2014   7.4961   7.4961
     7.5217   7.5217   7.5900   7.5900   8.3162   8.3162   9.1609   9.1609
     9.8154   9.8154

     occupation numbers 
     1.0000   1.0000   1.0000   1.0000   1.0000   1.0000   1.0000   1.0000
     1.0000   1.0000   1.0000   1.0000   1.0000   1.0000   1.0000   1.0000
     1.0000   1.0000   1.0000   1.0000   1.0000   1.0000   1.0000   1.0000
     1.0000   1.0000   1.0000   1.0000   1.0000   1.0000   1.0000   1.0000
     1.0000   1.0000   1.0000   1.0000   1.0000   1.0000   1.0000   1.0000
     1.0000   1.0000   1.0000   1.0000   1.0000   1.0000   1.0000   1.0000
     1.0000   1.0000   1.0000   1.0000   1.0000   1.0000   1.0000   1.0000
     1.0000   1.0000   1.0000   1.0000   1.0000   1.0000   1.0000   1.0000
     1.0000   1.0000   1.0000   1.0000   1.0000   1.0000   1.0000   1.0000
     1.0000   1.0000   1.0000   1.0000   1.0000   1.0000   0.0000   0.0000
     0.0000   0.0000

          k =-0.0000-2.4965 0.1562 (  7530 PWs)   bands (ev):

   -39.1522 -39.1522 -39.1519 -39.1519 -39.1468 -39.1468 -39.1467 -39.1467
   -38.9978 -38.9978 -38.9705 -38.9705 -38.2584 -38.2584 -38.2582 -38.2582
   -38.2567 -38.2567 -38.2561 -38.2561 -38.2515 -38.2515 -38.2514 -38.2514
   -38.1057 -38.1057 -38.0945 -38.0945 -38.0703 -38.0703 -15.7285 -15.7285
   -15.7281 -15.7281 -15.7180 -15.7180 -15.7164 -15.7164 -12.7540 -12.7540
   -12.7518 -12.7518 -12.7351 -12.7351 -12.7344 -12.7344 -12.7323 -12.7323
   -12.7312 -12.7312  -5.2984  -5.2984  -5.0609  -5.0609  -3.7007  -3.7007
    -1.1198  -1.1198   0.3840   0.3840   5.7974   5.7974   5.9787   5.9787
     6.5641   6.5641   6.7803   6.7803   7.0543   7.0543   7.1162   7.1162
     7.6537   7.6537   8.1265   8.1265   8.4680   8.4680   9.1683   9.1683
     9.7291   9.7291

     occupation numbers 
     1.0000   1.0000   1.0000   1.0000   1.0000   1.0000   1.0000   1.0000
     1.0000   1.0000   1.0000   1.0000   1.0000   1.0000   1.0000   1.0000
     1.0000   1.0000   1.0000   1.0000   1.0000   1.0000   1.0000   1.0000
     1.0000   1.0000   1.0000   1.0000   1.0000   1.0000   1.0000   1.0000
     1.0000   1.0000   1.0000   1.0000   1.0000   1.0000   1.0000   1.0000
     1.0000   1.0000   1.0000   1.0000   1.0000   1.0000   1.0000   1.0000
     1.0000   1.0000   1.0000   1.0000   1.0000   1.0000   1.0000   1.0000
     1.0000   1.0000   1.0000   1.0000   1.0000   1.0000   1.0000   1.0000
     1.0000   1.0000   1.0000   1.0000   1.0000   1.0000   1.0000   1.0000
     1.0000   1.0000   1.0000   1.0000   1.0000   1.0000   0.0000   0.0000
     0.0000   0.0000

     highest occupied, lowest unoccupied level (ev):     8.6076    8.9045

!    total energy              =   -3035.01675782 Ry
     Harris-Foulkes estimate   =   -3035.01675782 Ry
     estimated scf accuracy    <          2.1E-13 Ry

     total all-electron energy =   -100908.140754 Ry

     The total energy is the sum of the following terms:

     one-electron contribution =    -735.04495964 Ry
     hartree contribution      =     398.51525235 Ry
     xc contribution           =    -149.88591830 Ry
     ewald contribution        =    -595.11861076 Ry
     Dispersion Correction     =      -0.13460543 Ry
     one-center paw contrib.   =   -1953.34791604 Ry

     convergence has been achieved in  13 iterations

     Forces acting on atoms (Ry/au):

     atom    1 type  1   force =    -0.00000000    0.00000000   -0.00007384
     atom    2 type  2   force =     0.00000000   -0.00000000   -0.00000000
     atom    3 type  1   force =    -0.00000000   -0.00000000    0.00007384
     atom    4 type  2   force =     0.00000000    0.00000000   -0.00007150
     atom    5 type  2   force =     0.00000000   -0.00000000    0.00007150
     The non-local contrib.  to forces
     atom    1 type  1   force =    -0.00000000   -0.00000000   -0.16900789
     atom    2 type  2   force =     0.00000000    0.00000000    0.00000000
     atom    3 type  1   force =     0.00000000   -0.00000000    0.16900789
     atom    4 type  2   force =     0.00000000    0.00000000   -0.53241231
     atom    5 type  2   force =     0.00000000    0.00000000    0.53241231
     The ionic contribution  to forces
     atom    1 type  1   force =    -0.00000000    0.00000000   -2.10575970
     atom    2 type  2   force =     0.00000000    0.00000000    0.00000000
     atom    3 type  1   force =     0.00000000   -0.00000000    2.10575970
     atom    4 type  2   force =    -0.00000000    0.00000000   10.68892727
     atom    5 type  2   force =     0.00000000   -0.00000000  -10.68892727
     The local contribution  to forces
     atom    1 type  1   force =     0.00000000   -0.00000000    2.26808370
     atom    2 type  2   force =     0.00000000    0.00000000    0.00000000
     atom    3 type  1   force =    -0.00000000    0.00000000   -2.26808370
     atom    4 type  2   force =    -0.00000000   -0.00000000  -10.15591408
     atom    5 type  2   force =     0.00000000    0.00000000   10.15591408
     The core correction contribution to forces
     atom    1 type  1   force =    -0.00000000    0.00000000    0.00329027
     atom    2 type  2   force =    -0.00000000    0.00000000    0.00000000
     atom    3 type  1   force =     0.00000000   -0.00000000   -0.00329027
     atom    4 type  2   force =    -0.00000000    0.00000000    0.00193901
     atom    5 type  2   force =     0.00000000   -0.00000000   -0.00193901
     The Hubbard contrib.    to forces
     atom    1 type  1   force =     0.00000000    0.00000000    0.00000000
     atom    2 type  2   force =     0.00000000    0.00000000    0.00000000
     atom    3 type  1   force =     0.00000000    0.00000000    0.00000000
     atom    4 type  2   force =     0.00000000    0.00000000    0.00000000
     atom    5 type  2   force =     0.00000000    0.00000000    0.00000000
     The SCF correction term to forces
     atom    1 type  1   force =    -0.00000000    0.00000000    0.00000078
     atom    2 type  2   force =     0.00000000   -0.00000000   -0.00000000
     atom    3 type  1   force =    -0.00000000   -0.00000000   -0.00000078
     atom    4 type  2   force =     0.00000000   -0.00000000   -0.00000034
     atom    5 type  2   force =    -0.00000000   -0.00000000    0.00000034

     Dispersion contribution to forces:
     atom    1 type  1   force =    -0.00000000    0.00000000    0.00331900
     atom    2 type  2   force =    -0.00000000   -0.00000000    0.00000000
     atom    3 type  1   force =     0.00000000   -0.00000000   -0.00331900
     atom    4 type  2   force =     0.00000000   -0.00000000   -0.00261105
     atom    5 type  2   force =    -0.00000000    0.00000000    0.00261105

     Total force =     0.000145     Total SCF correction =     0.000001

     Total Dispersion Force =     0.005972


     entering subroutine stress ...

     Message from routine stres:
     noncollinear stress + GGA not implemented

     Writing output data file Bi2Se3.save
 
     init_run     :     41.40s CPU     46.62s WALL (       1 calls)
     electrons    :   1752.27s CPU   1877.66s WALL (       1 calls)
     forces       :      6.87s CPU      7.14s WALL (       1 calls)

     Called by init_run:
     wfcinit      :     39.32s CPU     44.11s WALL (       1 calls)
     wfcinit:atom :      0.04s CPU      0.05s WALL (     146 calls)
     wfcinit:wfcr :     39.06s CPU     43.71s WALL (     146 calls)
     potinit      :      0.61s CPU      0.71s WALL (       1 calls)

     Called by electrons:
     c_bands      :   1324.11s CPU   1433.63s WALL (      14 calls)
     sum_band     :    421.60s CPU    436.65s WALL (      14 calls)
     v_of_rho     :      0.91s CPU      0.99s WALL (      14 calls)
     v_h          :      0.06s CPU      0.07s WALL (      14 calls)
     v_xc         :      0.91s CPU      0.99s WALL (      15 calls)
     newd         :      3.44s CPU      4.02s WALL (      14 calls)
     PAW_pot      :      1.74s CPU      1.83s WALL (      14 calls)
     mix_rho      :      0.41s CPU      0.44s WALL (      14 calls)

     Called by c_bands:
     init_us_2    :      0.96s CPU      1.08s WALL (    4380 calls)
     cegterg      :   1310.94s CPU   1419.88s WALL (    2044 calls)

     Called by sum_band:
     sum_band:bec :     10.72s CPU     10.76s WALL (    2044 calls)
     addusdens    :      3.78s CPU      4.57s WALL (      14 calls)

     Called by *egterg:
     h_psi        :   1153.14s CPU   1214.79s WALL (    7936 calls)
     s_psi        :     14.20s CPU     14.32s WALL (    7936 calls)
     g_psi        :      0.39s CPU      0.41s WALL (    5746 calls)
     cdiaghg      :    130.00s CPU    167.90s WALL (    7644 calls)
     cegterg:over :     21.26s CPU     28.89s WALL (    5746 calls)
     cegterg:upda :     10.44s CPU     12.14s WALL (    5746 calls)
     cegterg:last :      5.62s CPU      7.10s WALL (    2044 calls)
     cdiaghg:chol :     12.65s CPU     17.08s WALL (    7644 calls)
     cdiaghg:inve :     12.81s CPU     20.60s WALL (    7644 calls)
     cdiaghg:para :     17.73s CPU     27.10s WALL (   15288 calls)

     Called by h_psi:
     h_psi:pot    :   1151.67s CPU   1213.28s WALL (    7936 calls)
     h_psi:calbec :     13.06s CPU     14.97s WALL (    7936 calls)
     vloc_psi     :   1124.14s CPU   1183.63s WALL (    7936 calls)
     add_vuspsi   :     14.40s CPU     14.62s WALL (    7936 calls)

     General routines
     calbec       :     19.44s CPU     22.09s WALL (   10564 calls)
     fft          :      1.58s CPU      1.79s WALL (     439 calls)
     ffts         :      0.09s CPU      0.10s WALL (     112 calls)
     fftw         :    972.26s CPU   1025.00s WALL ( 2073664 calls)
     interpolate  :      0.54s CPU      0.58s WALL (     112 calls)
     davcio       :      0.04s CPU      1.78s WALL (     146 calls)
 
     Parallel routines
     fft_scatter  :    305.87s CPU    331.83s WALL ( 2074215 calls)

     PAW routines
     PAW_pot      :      1.74s CPU      1.83s WALL (      14 calls)
     PAW_symme    :      0.02s CPU      0.03s WALL (      28 calls)
 
     PWSCF        : 30m 3.30s CPU    32m20.91s WALL

 
   This run was terminated on:  13:52:30  10Jan2019            

=------------------------------------------------------------------------------=
   JOB DONE.
=------------------------------------------------------------------------------=
